Protein in water
 1252
    1ETHH    EH    1   1.245   1.262   1.233
    1ETHH    EO    2   1.257   1.232   1.139
    1ETHH   EC1    3   1.189   1.105   1.125
    1ETHH   EC2    4   1.040   1.119   1.142
    2SOL     OW    5   0.256   0.612   0.091
    2SOL    HW1    6   0.183   0.641   0.153
    2SOL    HW2    7   0.218   0.595   0.000
    3SOL     OW    8   0.208   0.293   0.996
    3SOL    HW1    9   0.261   0.259   1.074
    3SOL    HW2   10   0.125   0.238   0.986
    4SOL     OW   11  -0.001   0.414   0.604
    4SOL    HW1   12  -0.077   0.404   0.669
    4SOL    HW2   13   0.019   0.325   0.563
    5SOL     OW   14   0.564   1.282   1.177
    5SOL    HW1   15   0.474   1.282   1.134
    5SOL    HW2   16   0.583   1.374   1.212
    6SOL     OW   17   1.554   1.510   0.708
    6SOL    HW1   18   1.507   1.492   0.794
    6SOL    HW2   19   1.486   1.519   0.635
    7SOL     OW   20   1.131   0.701   0.705
    7SOL    HW1   21   1.184   0.783   0.685
    7SOL    HW2   22   1.079   0.714   0.789
    8SOL     OW   23   1.774   0.594   0.236
    8SOL    HW1   24   1.735   0.603   0.144
    8SOL    HW2   25   1.735   0.513   0.280
    9SOL     OW   26   0.739   1.143   1.023
    9SOL    HW1   27   0.672   1.179   1.088
    9SOL    HW2   28   0.788   1.219   0.980
   10SOL     OW   29   0.857   0.785   1.819
   10SOL    HW1   30   0.853   0.856   1.889
   10SOL    HW2   31   0.886   0.826   1.732
   11SOL     OW   32   0.688   1.005   0.651
   11SOL    HW1   33   0.756   0.990   0.723
   11SOL    HW2   34   0.613   1.060   0.688
   12SOL     OW   35   0.707   1.155   1.809
   12SOL    HW1   36   0.760   1.237   1.833
   12SOL    HW2   37   0.618   1.183   1.772
   13SOL     OW   38   0.328   1.430   1.065
   13SOL    HW1   39   0.256   1.389   1.009
   13SOL    HW2   40   0.390   1.483   1.007
   14SOL     OW   41   1.465   1.501   1.343
   14SOL    HW1   42   1.506   1.591   1.357
   14SOL    HW2   43   1.402   1.481   1.417
   15SOL     OW   44   0.451   0.398   1.499
   15SOL    HW1   45   0.537   0.347   1.495
   15SOL    HW2   46   0.374   0.333   1.499
   16SOL     OW   47   1.610   0.451   0.741
   16SOL    HW1   48   1.529   0.475   0.688
   16SOL    HW2   49   1.638   0.529   0.797
   17SOL     OW   50   0.219   1.716   0.469
   17SOL    HW1   51   0.238   1.796   0.525
   17SOL    HW2   52   0.293   1.703   0.403
   18SOL     OW   53   1.139   1.338   1.689
   18SOL    HW1   54   1.177   1.341   1.781
   18SOL    HW2   55   1.080   1.257   1.680
   19SOL     OW   56   0.240   1.455   0.546
   19SOL    HW1   57   0.210   1.550   0.537
   19SOL    HW2   58   0.170   1.403   0.595
   20SOL     OW   59   0.268   1.091   0.904
   20SOL    HW1   60   0.267   0.998   0.940
   20SOL    HW2   61   0.199   1.145   0.953
   21SOL     OW   62   0.616   1.792   1.434
   21SOL    HW1   63   0.529   1.769   1.477
   21SOL    HW2   64   0.641   1.886   1.456
   22SOL     OW   65   0.614   0.966   0.133
   22SOL    HW1   66   0.590   1.042   0.072
   22SOL    HW2   67   0.652   1.001   0.218
   23SOL     OW   68   1.653   0.142   1.498
   23SOL    HW1   69   1.591   0.142   1.420
   23SOL    HW2   70   1.605   0.178   1.578
   24SOL     OW   71   0.148   0.632   0.569
   24SOL    HW1   72   0.095   0.548   0.583
   24SOL    HW2   73   0.112   0.704   0.627
   25SOL     OW   74   1.843   1.767   0.339
   25SOL    HW1   75   1.899   1.734   0.414
   25SOL    HW2   76   1.868   1.862   0.318
   26SOL     OW   77   2.322   1.603   0.129
   26SOL    HW1   78   2.330   1.504   0.140
   26SOL    HW2   79   2.359   1.648   0.210
   27SOL     OW   80   1.691   0.918   0.637
   27SOL    HW1   81   1.781   0.876   0.625
   27SOL    HW2   82   1.668   0.974   0.558
   28SOL     OW   83   1.650   1.106   0.435
   28SOL    HW1   84   1.735   1.114   0.382
   28SOL    HW2   85   1.650   1.171   0.511
   29SOL     OW   86   0.125   0.746   1.578
   29SOL    HW1   87   0.225   0.744   1.590
   29SOL    HW2   88   0.089   0.833   1.612
   30SOL     OW   89   0.610   1.384   0.733
   30SOL    HW1   90   0.567   1.294   0.745
   30SOL    HW2   91   0.596   1.416   0.640
   31SOL     OW   92   1.295   1.227   1.419
   31SOL    HW1   93   1.343   1.157   1.365
   31SOL    HW2   94   1.340   1.237   1.507
   32SOL     OW   95   0.815   0.001   0.566
   32SOL    HW1   96   0.855   0.079   0.517
   32SOL    HW2   97   0.716   0.003   0.556
   33SOL     OW   98   0.203   0.965   1.275
   33SOL    HW1   99   0.294   0.924   1.265
   33SOL    HW2  100   0.137   0.912   1.221
   34SOL     OW  101   1.488   1.025   0.216
   34SOL    HW1  102   1.430   0.946   0.235
   34SOL    HW2  103   1.553   1.038   0.291
   35SOL     OW  104   1.185   1.802   1.617
   35SOL    HW1  105   1.203   1.864   1.540
   35SOL    HW2  106   1.199   1.707   1.587
   36SOL     OW  107   0.319   0.266   1.787
   36SOL    HW1  108   0.394   0.326   1.817
   36SOL    HW2  109   0.241   0.277   1.848
   37SOL     OW  110   1.455   1.416   0.962
   37SOL    HW1  111   1.395   1.417   1.042
   37SOL    HW2  112   1.454   1.325   0.920
   38SOL     OW  113   1.662   1.729   0.578
   38SOL    HW1  114   1.635   1.708   0.484
   38SOL    HW2  115   1.633   1.655   0.638
   39SOL     OW  116   0.596   0.731   0.267
   39SOL    HW1  117   0.610   0.812   0.211
   39SOL    HW2  118   0.528   0.750   0.338
   40SOL     OW  119   1.286   0.347   0.935
   40SOL    HW1  120   1.191   0.315   0.937
   40SOL    HW2  121   1.340   0.292   0.998
   41SOL     OW  122   1.586   1.665   0.309
   41SOL    HW1  123   1.679   1.702   0.305
   41SOL    HW2  124   1.554   1.646   0.216
   42SOL     OW  125   0.796   0.613   1.457
   42SOL    HW1  126   0.767   0.594   1.550
   42SOL    HW2  127   0.751   0.550   1.394
   43SOL     OW  128   1.392   0.478   1.677
   43SOL    HW1  129   1.391   0.527   1.765
   43SOL    HW2  130   1.459   0.404   1.682
   44SOL     OW  131   0.961   0.888   1.579
   44SOL    HW1  132   1.017   0.812   1.546
   44SOL    HW2  133   0.908   0.926   1.503
   45SOL     OW  134   0.993   0.410   1.237
   45SOL    HW1  135   0.912   0.438   1.288
   45SOL    HW2  136   0.965   0.354   1.159
   46SOL     OW  137   1.047   0.700   0.430
   46SOL    HW1  138   1.066   0.695   0.528
   46SOL    HW2  139   0.960   0.654   0.410
   47SOL     OW  140   0.079   0.788   0.775
   47SOL    HW1  141   0.170   0.801   0.815
   47SOL    HW2  142   0.030   0.875   0.776
   48SOL     OW  143   0.137   1.861   1.582
   48SOL    HW1  144   0.140   1.837   1.679
   48SOL    HW2  145   0.054   1.824   1.541
   49SOL     OW  146   0.887   0.373   0.217
   49SOL    HW1  147   0.928   0.418   0.138
   49SOL    HW2  148   0.863   0.279   0.194
   50SOL     OW  149   1.711   0.580   1.825
   50SOL    HW1  150   1.671   0.660   1.780
   50SOL    HW2  151   1.737   0.513   1.756
   51SOL     OW  152   1.377   1.144   0.543
   51SOL    HW1  153   1.455   1.120   0.486
   51SOL    HW2  154   1.318   1.209   0.494
   52SOL     OW  155   0.534   0.202   0.890
   52SOL    HW1  156   0.536   0.221   0.988
   52SOL    HW2  157   0.548   0.287   0.839
   53SOL     OW  158   1.006   1.446   0.474
   53SOL    HW1  159   0.962   1.520   0.424
   53SOL    HW2  160   0.993   1.461   0.573
   54SOL     OW  161   0.354   1.804   0.857
   54SOL    HW1  162   0.401   1.717   0.867
   54SOL    HW2  163   0.419   1.879   0.874
   55SOL     OW  164   1.797   1.062   0.868
   55SOL    HW1  165   1.742   1.047   0.786
   55SOL    HW2  166   1.738   1.066   0.948
   56SOL     OW  167   1.230   1.540   1.513
   56SOL    HW1  168   1.220   1.468   1.582
   56SOL    HW2  169   1.167   1.522   1.437
   57SOL     OW  170   0.310   0.936   0.241
   57SOL    HW1  171   0.375   0.996   0.193
   57SOL    HW2  172   0.331   0.841   0.219
   58SOL     OW  173   1.478   0.738   0.727
   58SOL    HW1  174   1.462   0.688   0.812
   58SOL    HW2  175   1.554   0.802   0.741
   59SOL     OW  176   0.465   1.254   1.731
   59SOL    HW1  177   0.437   1.264   1.635
   59SOL    HW2  178   0.384   1.259   1.789
   60SOL     OW  179   1.110   1.772   0.239
   60SOL    HW1  180   1.043   1.722   0.293
   60SOL    HW2  181   1.143   1.714   0.164
   61SOL     OW  182   0.199   0.286   1.498
   61SOL    HW1  183   0.159   0.375   1.474
   61SOL    HW2  184   0.209   0.280   1.598
   62SOL     OW  185   1.625   1.365   0.083
   62SOL    HW1  186   1.605   1.463   0.075
   62SOL    HW2  187   1.540   1.313   0.073
   63SOL     OW  188   0.463   1.743   0.324
   63SOL    HW1  189   0.501   1.802   0.395
   63SOL    HW2  190   0.535   1.717   0.260
   64SOL     OW  191   1.417   0.120   0.436
   64SOL    HW1  192   1.388   0.078   0.350
   64SOL    HW2  193   1.513   0.148   0.429
   65SOL     OW  194   0.254   1.799   1.231
   65SOL    HW1  195   0.303   1.731   1.285
   65SOL    HW2  196   0.232   1.761   1.141
   66SOL     OW  197   0.938   1.697   0.901
   66SOL    HW1  198   1.019   1.643   0.924
   66SOL    HW2  199   0.887   1.651   0.828
   67SOL     OW  200   0.397   0.693   0.473
   67SOL    HW1  201   0.426   0.598   0.478
   67SOL    HW2  202   0.301   0.700   0.499
   68SOL     OW  203   1.535   0.242   1.730
   68SOL    HW1  204   1.520   0.273   1.824
   68SOL    HW2  205   1.474   0.166   1.710
   69SOL     OW  206   0.610   0.103   0.092
   69SOL    HW1  207   0.709   0.096   0.107
   69SOL    HW2  208   0.593   0.161   0.012
   70SOL     OW  209   0.767   0.269   1.754
   70SOL    HW1  210   0.845   0.207   1.771
   70SOL    HW2  211   0.718   0.284   1.840
   71SOL     OW  212   0.880   1.516   1.191
   71SOL    HW1  213   0.861   1.483   1.099
   71SOL    HW2  214   0.952   1.461   1.233
   72SOL     OW  215   1.346   0.590   1.432
   72SOL    HW1  216   1.374   0.553   1.521
   72SOL    HW2  217   1.381   0.684   1.423
   73SOL     OW  218   0.812   1.399   0.935
   73SOL    HW1  219   0.902   1.388   0.893
   73SOL    HW2  220   0.742   1.396   0.863
   74SOL     OW  221   0.926   0.507   0.905
   74SOL    HW1  222   0.899   0.502   0.808
   74SOL    HW2  223   0.968   0.421   0.932
   75SOL     OW  224   0.553   0.053   0.491
   75SOL    HW1  225   0.479   0.042   0.557
   75SOL    HW2  226   0.543   0.141   0.444
   76SOL     OW  227   1.407   1.214   0.050
   76SOL    HW1  228   1.440   1.136   0.104
   76SOL    HW2  229   1.314   1.237   0.079
   77SOL     OW  230   0.314   0.028   0.179
   77SOL    HW1  231   0.336   0.121   0.207
   77SOL    HW2  232   0.362  -0.037   0.240
   78SOL     OW  233   0.952   0.253   0.501
   78SOL    HW1  234   0.903   0.255   0.414
   78SOL    HW2  235   1.050   0.262   0.485
   79SOL     OW  236   1.081   0.676   1.462
   79SOL    HW1  237   1.001   0.615   1.467
   79SOL    HW2  238   1.164   0.621   1.453
   80SOL     OW  239   1.228   1.573   0.795
   80SOL    HW1  240   1.242   1.642   0.725
   80SOL    HW2  241   1.304   1.576   0.860
   81SOL     OW  242   0.472   1.147   0.737
   81SOL    HW1  243   0.396   1.135   0.801
   81SOL    HW2  244   0.438   1.140   0.643
   82SOL     OW  245   1.270   1.796   0.606
   82SOL    HW1  246   1.319   1.859   0.545
   82SOL    HW2  247   1.198   1.846   0.654
   83SOL     OW  248   1.046   0.555   0.027
   83SOL    HW1  249   0.963   0.601  -0.003
   83SOL    HW2  250   1.080   0.598   0.111
   84SOL     OW  251   0.097   0.534   1.412
   84SOL    HW1  252   0.186   0.542   1.366
   84SOL    HW2  253   0.083   0.614   1.472
   85SOL     OW  254   0.555   0.244   1.163
   85SOL    HW1  255   0.599   0.159   1.194
   85SOL    HW2  256   0.460   0.244   1.196
   86SOL     OW  257   0.863   0.470   0.643
   86SOL    HW1  258   0.818   0.527   0.575
   86SOL    HW2  259   0.894   0.385   0.600
   87SOL     OW  260   0.999   0.046   0.769
   87SOL    HW1  261   0.940   0.040   0.689
   87SOL    HW2  262   1.003  -0.043   0.814
   88SOL     OW  263   1.444   1.163   0.854
   88SOL    HW1  264   1.366   1.101   0.863
   88SOL    HW2  265   1.462   1.179   0.756
   89SOL     OW  266   1.469   0.598   0.983
   89SOL    HW1  267   1.416   0.512   0.983
   89SOL    HW2  268   1.533   0.598   1.059
   90SOL     OW  269   1.848   0.815   0.387
   90SOL    HW1  270   1.910   0.763   0.447
   90SOL    HW2  271   1.818   0.756   0.312
   91SOL     OW  272   0.492   1.402   0.169
   91SOL    HW1  273   0.424   1.368   0.233
   91SOL    HW2  274   0.451   1.411   0.078
   92SOL     OW  275   1.671   1.267   0.651
   92SOL    HW1  276   1.770   1.271   0.658
   92SOL    HW2  277   1.632   1.357   0.671
   93SOL     OW  278   1.348   0.545   0.063
   93SOL    HW1  279   1.307   0.541   0.154
   93SOL    HW2  280   1.448   0.545   0.071
   94SOL     OW  281   0.544   0.259   0.313
   94SOL    HW1  282   0.551   0.200   0.233
   94SOL    HW2  283   0.523   0.353   0.284
   95SOL     OW  284   1.757   1.233   1.578
   95SOL    HW1  285   1.848   1.196   1.562
   95SOL    HW2  286   1.764   1.327   1.610
   96SOL     OW  287   1.066   1.372   1.355
   96SOL    HW1  288   0.981   1.331   1.388
   96SOL    HW2  289   1.144   1.318   1.390
   97SOL     OW  290   1.605   1.628   1.648
   97SOL    HW1  291   1.603   1.661   1.554
   97SOL    HW2  292   1.690   1.578   1.664
   98SOL     OW  293   1.630   1.100   1.081
   98SOL    HW1  294   1.626   1.166   1.156
   98SOL    HW2  295   1.549   1.110   1.023
   99SOL     OW  296   0.903   0.100   1.399
   99SOL    HW1  297   0.926   0.067   1.308
   99SOL    HW2  298   0.983   0.143   1.440
  100SOL     OW  299   0.981   1.114   1.721
  100SOL    HW1  300   0.885   1.131   1.743
  100SOL    HW2  301   0.988   1.032   1.663
  101SOL     OW  302   0.711   1.061   0.372
  101SOL    HW1  303   0.689   1.049   0.468
  101SOL    HW2  304   0.791   1.006   0.349
  102SOL     OW  305   0.421   0.811   1.251
  102SOL    HW1  306   0.495   0.824   1.317
  102SOL    HW2  307   0.382   0.719   1.262
  103SOL     OW  308   1.267   0.377   1.278
  103SOL    HW1  309   1.305   0.458   1.322
  103SOL    HW2  310   1.176   0.398   1.241
  104SOL     OW  311   0.068   1.567   1.324
  104SOL    HW1  312   0.040   1.663   1.317
  104SOL    HW2  313   0.165   1.562   1.348
  105SOL     OW  314   0.401   1.125   0.473
  105SOL    HW1  315   0.362   1.195   0.414
  105SOL    HW2  316   0.370   1.034   0.443
  106SOL     OW  317   0.563   0.539   0.859
  106SOL    HW1  318   0.574   0.600   0.780
  106SOL    HW2  319   0.623   0.569   0.933
  107SOL     OW  320   1.248   1.349   0.402
  107SOL    HW1  321   1.308   1.424   0.428
  107SOL    HW2  322   1.155   1.369   0.432
  108SOL     OW  323   1.579   0.628   0.485
  108SOL    HW1  324   1.544   0.682   0.562
  108SOL    HW2  325   1.652   0.679   0.439
  109SOL     OW  326   0.350   1.523   1.319
  109SOL    HW1  327   0.330   1.480   1.231
  109SOL    HW2  328   0.448   1.540   1.326
  110SOL     OW  329   0.410   0.738   1.600
  110SOL    HW1  330   0.467   0.794   1.541
  110SOL    HW2  331   0.460   0.654   1.624
  111SOL     OW  332   1.597   0.780   1.677
  111SOL    HW1  333   1.505   0.819   1.675
  111SOL    HW2  334   1.653   0.822   1.606
  112SOL     OW  335   1.006   0.117   1.769
  112SOL    HW1  336   1.046   0.200   1.731
  112SOL    HW2  337   1.019   0.041   1.706
  113SOL     OW  338   0.469   0.031   1.748
  113SOL    HW1  339   0.481   0.003   1.653
  113SOL    HW2  340   0.423   0.120   1.751
  114SOL     OW  341   0.591   0.874   1.035
  114SOL    HW1  342   0.620   0.968   1.021
  114SOL    HW2  343   0.526   0.870   1.111
  115SOL     OW  344   1.363   0.845   1.047
  115SOL    HW1  345   1.286   0.859   0.985
  115SOL    HW2  346   1.402   0.755   1.033
  116SOL     OW  347   1.209   0.528   0.292
  116SOL    HW1  348   1.223   0.449   0.352
  116SOL    HW2  349   1.156   0.598   0.340
  117SOL     OW  350   0.304   0.221   1.247
  117SOL    HW1  351   0.265   0.231   1.338
  117SOL    HW2  352   0.298   0.125   1.218
  118SOL     OW  353   0.059   1.304   1.270
  118SOL    HW1  354   0.082   1.255   1.354
  118SOL    HW2  355   0.058   1.402   1.288
  119SOL     OW  356   0.729   0.634   1.061
  119SOL    HW1  357   0.802   0.609   0.998
  119SOL    HW2  358   0.696   0.726   1.040
  120SOL     OW  359   1.733   0.960   1.845
  120SOL    HW1  360   1.683   0.902   1.782
  120SOL    HW2  361   1.677   0.977   1.927
  121SOL     OW  362   0.343   0.046   0.661
  121SOL    HW1  363   0.314   0.142   0.665
  121SOL    HW2  364   0.271  -0.012   0.699
  122SOL     OW  365   1.621   0.378   0.372
  122SOL    HW1  366   1.652   0.304   0.432
  122SOL    HW2  367   1.591   0.456   0.428
  123SOL     OW  368   1.023   0.757   0.965
  123SOL    HW1  369   1.028   0.777   1.063
  123SOL    HW2  370   0.996   0.662   0.951
  124SOL     OW  371   0.984   1.562   1.709
  124SOL    HW1  372   0.964   1.611   1.625
  124SOL    HW2  373   1.031   1.477   1.688
  125SOL     OW  374   1.857   1.509   1.606
  125SOL    HW1  375   1.871   1.535   1.510
  125SOL    HW2  376   1.940   1.528   1.658
  126SOL     OW  377   0.356   0.913   1.809
  126SOL    HW1  378   0.440   0.941   1.855
  126SOL    HW2  379   0.379   0.848   1.736
  127SOL     OW  380   1.499   0.293   0.145
  127SOL    HW1  381   1.471   0.199   0.163
  127SOL    HW2  382   1.551   0.327   0.224
  128SOL     OW  383   1.291   0.823   0.035
  128SOL    HW1  384   1.326   0.731   0.051
  128SOL    HW2  385   1.333   0.861  -0.048
  129SOL     OW  386   1.055   1.348   0.835
  129SOL    HW1  387   1.065   1.261   0.787
  129SOL    HW2  388   1.131   1.408   0.811
  130SOL     OW  389   0.333   0.812   0.930
  130SOL    HW1  390   0.432   0.830   0.932
  130SOL    HW2  391   0.315   0.726   0.979
  131SOL     OW  392   0.349   0.519   1.018
  131SOL    HW1  393   0.296   0.439   0.992
  131SOL    HW2  394   0.425   0.530   0.953
  132SOL     OW  395   1.136   0.384   1.690
  132SOL    HW1  396   1.087   0.442   1.754
  132SOL    HW2  397   1.230   0.418   1.679
  133SOL     OW  398   1.133   0.220   1.479
  133SOL    HW1  399   1.130   0.287   1.554
  133SOL    HW2  400   1.161   0.266   1.395
  134SOL     OW  401   0.019   1.322   0.178
  134SOL    HW1  402  -0.077   1.342   0.199
  134SOL    HW2  403   0.040   1.228   0.207
  135SOL     OW  404   0.090   1.791   0.936
  135SOL    HW1  405   0.054   1.710   0.890
  135SOL    HW2  406   0.184   1.808   0.905
  136SOL     OW  407   0.501   1.572   0.908
  136SOL    HW1  408   0.571   1.640   0.932
  136SOL    HW2  409   0.542   1.503   0.848
  137SOL     OW  410   0.989   0.792   1.233
  137SOL    HW1  411   1.040   0.762   1.313
  137SOL    HW2  412   0.897   0.754   1.235
  138SOL     OW  413   0.086   0.563   1.136
  138SOL    HW1  414   0.140   0.487   1.099
  138SOL    HW2  415   0.077   0.552   1.235
  139SOL     OW  416   0.180   0.515   1.712
  139SOL    HW1  417   0.264   0.495   1.663
  139SOL    HW2  418   0.135   0.594   1.671
  140SOL     OW  419   1.374   0.941   1.657
  140SOL    HW1  420   1.396   1.039   1.666
  140SOL    HW2  421   1.375   0.916   1.561
  141SOL     OW  422   0.811   0.585   0.364
  141SOL    HW1  423   0.826   0.502   0.309
  141SOL    HW2  424   0.733   0.635   0.327
  142SOL     OW  425   1.643   0.604   1.191
  142SOL    HW1  426   1.627   0.541   1.267
  142SOL    HW2  427   1.732   0.585   1.150
  143SOL     OW  428   0.278   1.557   1.743
  143SOL    HW1  429   0.223   1.625   1.793
  143SOL    HW2  430   0.250   1.465   1.770
  144SOL     OW  431   0.689   0.462   1.265
  144SOL    HW1  432   0.636   0.381   1.238
  144SOL    HW2  433   0.695   0.525   1.188
  145SOL     OW  434   0.928   1.680   1.466
  145SOL    HW1  435   0.903   1.640   1.378
  145SOL    HW2  436   0.928   1.780   1.458
  146SOL     OW  437   0.489   0.496   0.198
  146SOL    HW1  438   0.538   0.581   0.216
  146SOL    HW2  439   0.396   0.517   0.166
  147SOL     OW  440   0.159   1.138   1.473
  147SOL    HW1  441   0.143   1.086   1.557
  147SOL    HW2  442   0.175   1.075   1.398
  148SOL     OW  443   1.267   0.866   0.325
  148SOL    HW1  444   1.187   0.824   0.367
  148SOL    HW2  445   1.268   0.846   0.227
  149SOL     OW  446   1.767   1.744   1.147
  149SOL    HW1  447   1.831   1.776   1.078
  149SOL    HW2  448   1.740   1.650   1.127
  150SOL     OW  449   1.245   1.738   1.122
  150SOL    HW1  450   1.329   1.751   1.068
  150SOL    HW2  451   1.239   1.643   1.153
  151SOL     OW  452   0.068   1.240   1.012
  151SOL    HW1  453   0.070   1.265   1.109
  151SOL    HW2  454  -0.024   1.214   0.985
  152SOL     OW  455   0.681   1.667   1.724
  152SOL    HW1  456   0.621   1.747   1.726
  152SOL    HW2  457   0.742   1.674   1.645
  153SOL     OW  458   0.934   0.016   0.098
  153SOL    HW1  459   0.946   0.093   0.036
  153SOL    HW2  460   0.982   0.035   0.184
  154SOL     OW  461   1.706   0.148   0.495
  154SOL    HW1  462   1.785   0.138   0.436
  154SOL    HW2  463   1.703   0.072   0.561
  155SOL     OW  464   1.393   1.571   0.484
  155SOL    HW1  465   1.457   1.598   0.411
  155SOL    HW2  466   1.340   1.650   0.513
  156SOL     OW  467   0.137   1.790   1.845
  156SOL    HW1  468   0.080   1.724   1.893
  156SOL    HW2  469   0.192   1.841   1.911
  157SOL     OW  470   1.281   0.924   0.670
  157SOL    HW1  471   1.355   0.857   0.677
  157SOL    HW2  472   1.311   1.002   0.616
  158SOL     OW  473   0.819   1.274   1.431
  158SOL    HW1  474   0.793   1.314   1.519
  158SOL    HW2  475   0.749   1.293   1.363
  159SOL     OW  476   0.667   1.608   0.161
  159SOL    HW1  477   0.684   1.616   0.063
  159SOL    HW2  478   0.615   1.525   0.180
  160SOL     OW  479   1.635   1.731   1.391
  160SOL    HW1  480   1.682   1.736   1.302
  160SOL    HW2  481   1.615   1.824   1.423
  161SOL     OW  482   1.845   0.151   0.960
  161SOL    HW1  483   1.876   0.071   0.907
  161SOL    HW2  484   1.755   0.179   0.928
  162SOL     OW  485   0.255   0.315   0.723
  162SOL    HW1  486   0.194   0.389   0.696
  162SOL    HW2  487   0.257   0.308   0.822
  163SOL     OW  488   1.201   1.612   0.043
  163SOL    HW1  489   1.192   1.518   0.077
  163SOL    HW2  490   1.158   1.619  -0.047
  164SOL     OW  491   0.821   1.007   1.377
  164SOL    HW1  492   0.862   0.996   1.287
  164SOL    HW2  493   0.823   1.104   1.402
  165SOL     OW  494   0.919   0.914   0.294
  165SOL    HW1  495   0.978   0.946   0.220
  165SOL    HW2  496   0.962   0.835   0.339
  166SOL     OW  497   1.500   1.614   0.045
  166SOL    HW1  498   1.403   1.638   0.044
  166SOL    HW2  499   1.542   1.642  -0.042
  167SOL     OW  500   0.373   1.301   1.487
  167SOL    HW1  501   0.361   1.385   1.434
  167SOL    HW2  502   0.292   1.243   1.477
  168SOL     OW  503   1.608   1.278   1.287
  168SOL    HW1  504   1.679   1.275   1.358
  168SOL    HW2  505   1.548   1.357   1.303
  169SOL     OW  506   1.050   1.103   0.709
  169SOL    HW1  507   0.974   1.053   0.750
  169SOL    HW2  508   1.112   1.039   0.663
  170SOL     OW  509   1.037   0.242   0.959
  170SOL    HW1  510   1.024   0.192   0.873
  170SOL    HW2  511   1.006   0.186   1.036
  171SOL     OW  512   0.601   1.490   0.482
  171SOL    HW1  513   0.640   1.431   0.411
  171SOL    HW2  514   0.534   1.552   0.441
  172SOL     OW  515   1.714   0.407   1.376
  172SOL    HW1  516   1.793   0.467   1.375
  172SOL    HW2  517   1.732   0.327   1.318
  173SOL     OW  518   0.273   1.324   0.319
  173SOL    HW1  519   0.182   1.322   0.277
  173SOL    HW2  520   0.269   1.378   0.404
  174SOL     OW  521   0.106   0.977   1.713
  174SOL    HW1  522   0.047   1.039   1.766
  174SOL    HW2  523   0.195   0.970   1.757
  175SOL     OW  524   0.668   0.217   1.497
  175SOL    HW1  525   0.741   0.172   1.447
  175SOL    HW2  526   0.696   0.229   1.593
  176SOL     OW  527   0.060   0.379   0.047
  176SOL    HW1  528  -0.001   0.303   0.025
  176SOL    HW2  529   0.120   0.397  -0.031
  177SOL     OW  530   1.428   0.866   1.394
  177SOL    HW1  531   1.372   0.886   1.314
  177SOL    HW2  532   1.525   0.868   1.368
  178SOL     OW  533   0.043   0.139   0.265
  178SOL    HW1  534   0.033   0.238   0.263
  178SOL    HW2  535   0.139   0.115   0.284
  179SOL     OW  536   1.166   1.342   0.140
  179SOL    HW1  537   1.069   1.317   0.139
  179SOL    HW2  538   1.201   1.338   0.233
  180SOL     OW  539   0.618   0.831   1.433
  180SOL    HW1  540   0.673   0.914   1.419
  180SOL    HW2  541   0.678   0.752   1.442
  181SOL     OW  542   1.487   1.775   0.978
  181SOL    HW1  543   1.509   1.827   0.896
  181SOL    HW2  544   1.571   1.755   1.029
  182SOL     OW  545   0.715   0.564   1.709
  182SOL    HW1  546   0.751   0.635   1.771
  182SOL    HW2  547   0.757   0.476   1.733
  183SOL     OW  548   1.467   1.208   1.635
  183SOL    HW1  549   1.452   1.218   1.733
  183SOL    HW2  550   1.564   1.218   1.615
  184SOL     OW  551   0.383   1.738   1.561
  184SOL    HW1  552   0.297   1.787   1.551
  184SOL    HW2  553   0.367   1.653   1.611
  185SOL     OW  554   1.673   0.881   1.255
  185SOL    HW1  555   1.662   0.790   1.216
  185SOL    HW2  556   1.662   0.950   1.184
  186SOL     OW  557   1.232   0.323   0.474
  186SOL    HW1  558   1.295   0.247   0.460
  186SOL    HW2  559   1.260   0.376   0.554
  187SOL     OW  560   0.589   0.743   0.667
  187SOL    HW1  561   0.635   0.830   0.651
  187SOL    HW2  562   0.516   0.730   0.599
  188SOL     OW  563   1.766   0.374   1.642
  188SOL    HW1  564   1.751   0.382   1.544
  188SOL    HW2  565   1.693   0.319   1.683
  189SOL     OW  566   1.748   0.934   1.511
  189SOL    HW1  567   1.747   1.032   1.532
  189SOL    HW2  568   1.730   0.920   1.414
  190SOL     OW  569   0.889   1.380   0.031
  190SOL    HW1  570   0.824   1.375   0.107
  190SOL    HW2  571   0.883   1.470  -0.012
  191SOL     OW  572   0.661   1.794   0.953
  191SOL    HW1  573   0.632   1.885   0.924
  191SOL    HW2  574   0.759   1.783   0.937
  192SOL     OW  575   0.866   0.963   0.857
  192SOL    HW1  576   0.919   0.889   0.899
  192SOL    HW2  577   0.825   1.020   0.928
  193SOL     OW  578   1.080   0.990   0.086
  193SOL    HW1  579   1.042   1.024   0.000
  193SOL    HW2  580   1.161   0.935   0.067
  194SOL     OW  581   1.854   1.560   0.847
  194SOL    HW1  582   1.780   1.546   0.782
  194SOL    HW2  583   1.855   1.486   0.914
  195SOL     OW  584   0.232   1.302   1.853
  195SOL    HW1  585   0.146   1.274   1.811
  195SOL    HW2  586   0.219   1.317   1.951
  196SOL     OW  587   0.092   1.263   0.662
  196SOL    HW1  588   0.062   1.219   0.746
  196SOL    HW2  589   0.150   1.200   0.610
  197SOL     OW  590   0.681   1.401   1.631
  197SOL    HW1  591   0.598   1.351   1.655
  197SOL    HW2  592   0.675   1.495   1.664
  198SOL     OW  593   1.787   0.200   1.220
  198SOL    HW1  594   1.829   0.125   1.271
  198SOL    HW2  595   1.811   0.192   1.123
  199SOL     OW  596   0.427   0.425   0.520
  199SOL    HW1  597   0.469   0.356   0.462
  199SOL    HW2  598   0.386   0.382   0.600
  200SOL     OW  599   1.698   1.490   1.103
  200SOL    HW1  600   1.614   1.463   1.056
  200SOL    HW2  601   1.722   1.420   1.171
  201SOL     OW  602   0.336   0.549   1.293
  201SOL    HW1  603   0.399   0.495   1.349
  201SOL    HW2  604   0.352   0.529   1.196
  202SOL     OW  605   0.822   1.582   0.681
  202SOL    HW1  606   0.824   1.627   0.592
  202SOL    HW2  607   0.743   1.522   0.687
  203SOL     OW  608   1.432   0.218   1.121
  203SOL    HW1  609   1.473   0.144   1.174
  203SOL    HW2  610   1.376   0.275   1.181
  204SOL     OW  611   1.021   0.015   1.162
  204SOL    HW1  612   0.945  -0.028   1.114
  204SOL    HW2  613   1.107  -0.018   1.125
  205SOL     OW  614   0.774   1.329   0.305
  205SOL    HW1  615   0.734   1.238   0.316
  205SOL    HW2  616   0.858   1.335   0.359
  206SOL     OW  617   0.624   1.560   1.286
  206SOL    HW1  618   0.624   1.645   1.338
  206SOL    HW2  619   0.713   1.548   1.241
  207SOL     OW  620   1.341   0.037   0.192
  207SOL    HW1  621   1.369   0.037   0.096
  207SOL    HW2  622   1.246   0.068   0.198
  208SOL     OW  623   1.303   0.467   0.692
  208SOL    HW1  624   1.242   0.546   0.694
  208SOL    HW2  625   1.299   0.420   0.780
  209SOL     OW  626   1.596   0.214   0.879
  209SOL    HW1  627   1.526   0.218   0.951
  209SOL    HW2  628   1.593   0.297   0.824
  210SOL     OW  629   0.079   1.083   0.294
  210SOL    HW1  630   0.172   1.047   0.285
  210SOL    HW2  631   0.018   1.010   0.323
  211SOL     OW  632   0.878   1.650   0.347
  211SOL    HW1  633   0.807   1.627   0.281
  211SOL    HW2  634   0.850   1.729   0.401
  212SOL     OW  635   0.250   0.610   1.961
  212SOL    HW1  636   0.171   0.629   2.019
  212SOL    HW2  637   0.218   0.582   1.870
  213SOL     OW  638   1.767   0.602   2.090
  213SOL    HW1  639   1.749   0.595   1.991
  213SOL    HW2  640   1.730   0.522   2.136
  214SOL     OW  641   0.240   1.714   2.330
  214SOL    HW1  642   0.247   1.794   2.389
  214SOL    HW2  643   0.305   1.723   2.254
  215SOL     OW  644   0.234   1.443   0.046
  215SOL    HW1  645   0.218   1.542   0.046
  215SOL    HW2  646   0.162   1.397   0.097
  216SOL     OW  647   0.600   0.984   1.998
  216SOL    HW1  648   0.632   1.042   1.924
  216SOL    HW2  649   0.665   0.989   2.074
  217SOL     OW  650   1.835   1.757   2.202
  217SOL    HW1  651   1.884   1.717   2.280
  217SOL    HW2  652   1.870   1.848   2.183
  218SOL     OW  653   0.017   1.597   1.992
  218SOL    HW1  654   0.019   1.497   1.990
  218SOL    HW2  655   0.009   1.628   2.087
  219SOL     OW  656   1.722   0.885   0.133
  219SOL    HW1  657   1.819   0.905   0.147
  219SOL    HW2  658   1.682   0.954   0.073
  220SOL     OW  659   1.665   1.090   2.286
  220SOL    HW1  660   1.753   1.109   2.241
  220SOL    HW2  661   1.639   1.168   2.342
  221SOL     OW  662   1.538   0.996   2.051
  221SOL    HW1  663   1.467   0.926   2.058
  221SOL    HW2  664   1.570   1.021   2.143
  222SOL     OW  665   0.588   0.725   2.124
  222SOL    HW1  666   0.607   0.801   2.062
  222SOL    HW2  667   0.536   0.759   2.203
  223SOL     OW  668   0.870   0.361   2.043
  223SOL    HW1  669   0.939   0.406   1.985
  223SOL    HW2  670   0.887   0.262   2.044
  224SOL     OW  671   0.332   0.942   2.107
  224SOL    HW1  672   0.413   0.990   2.073
  224SOL    HW2  673   0.319   0.857   2.056
  225SOL     OW  674   1.500   0.727   0.232
  225SOL    HW1  675   1.469   0.689   0.319
  225SOL    HW2  676   1.570   0.796   0.249
  226SOL     OW  677   1.119   1.769   2.096
  226SOL    HW1  678   1.036   1.732   2.138
  226SOL    HW2  679   1.144   1.713   2.017
  227SOL     OW  680   1.624   1.381   1.945
  227SOL    HW1  681   1.587   1.474   1.938
  227SOL    HW2  682   1.552   1.315   1.928
  228SOL     OW  683   0.472   1.753   2.176
  228SOL    HW1  684   0.504   1.778   2.267
  228SOL    HW2  685   0.548   1.714   2.123
  229SOL     OW  686   1.425   0.099   2.271
  229SOL    HW1  687   1.400   0.084   2.175
  229SOL    HW2  688   1.508   0.154   2.276
  230SOL     OW  689   0.603   0.116   1.960
  230SOL    HW1  690   0.698   0.091   1.979
  230SOL    HW2  691   0.574   0.073   1.874
  231SOL     OW  692   1.425   1.198   1.902
  231SOL    HW1  693   1.463   1.122   1.956
  231SOL    HW2  694   1.335   1.222   1.938
  232SOL     OW  695   0.299   0.045   2.041
  232SOL    HW1  696   0.363   0.117   2.018
  232SOL    HW2  697   0.348  -0.032   2.081
  233SOL     OW  698   0.965   0.253   2.309
  233SOL    HW1  699   0.914   0.292   2.233
  233SOL    HW2  700   1.060   0.283   2.304
  234SOL     OW  701   1.030   0.550   1.880
  234SOL    HW1  702   0.980   0.634   1.859
  234SOL    HW2  703   1.092   0.565   1.957
  235SOL     OW  704   1.865   0.816   2.222
  235SOL    HW1  705   1.912   0.771   2.298
  235SOL    HW2  706   1.828   0.746   2.161
  236SOL     OW  707   0.498   1.408   2.022
  236SOL    HW1  708   0.420   1.379   2.078
  236SOL    HW2  709   0.475   1.398   1.925
  237SOL     OW  710   1.395   0.577   1.934
  237SOL    HW1  711   1.329   0.555   2.006
  237SOL    HW2  712   1.482   0.531   1.954
  238SOL     OW  713   0.583   0.251   2.188
  238SOL    HW1  714   0.581   0.209   2.097
  238SOL    HW2  715   0.536   0.339   2.185
  239SOL     OW  716   0.385   1.103   0.006
  239SOL    HW1  717   0.349   1.189  -0.030
  239SOL    HW2  718   0.361   1.028  -0.056
  240SOL     OW  719   1.242   1.380   2.210
  240SOL    HW1  720   1.332   1.396   2.250
  240SOL    HW2  721   1.180   1.344   2.279
  241SOL     OW  722   1.609   0.637   0.001
  241SOL    HW1  723   1.576   0.693   0.078
  241SOL    HW2  724   1.653   0.697  -0.066
  242SOL     OW  725   1.205   0.528   2.122
  242SOL    HW1  726   1.223   0.438   2.163
  242SOL    HW2  727   1.166   0.588   2.192
  243SOL     OW  728   1.625   0.381   2.223
  243SOL    HW1  729   1.642   0.307   2.287
  243SOL    HW2  730   1.592   0.461   2.272
  244SOL     OW  731   1.504   0.298   1.986
  244SOL    HW1  732   1.456   0.213   2.006
  244SOL    HW2  733   1.565   0.321   2.062
  245SOL     OW  734   1.308   0.838   1.906
  245SOL    HW1  735   1.339   0.743   1.913
  245SOL    HW2  736   1.329   0.873   1.814
  246SOL     OW  737   0.015   1.319   2.047
  246SOL    HW1  738  -0.079   1.341   2.073
  246SOL    HW2  739   0.033   1.222   2.065
  247SOL     OW  740   0.820   0.589   2.193
  247SOL    HW1  741   0.825   0.501   2.144
  247SOL    HW2  742   0.731   0.631   2.176
  248SOL     OW  743   0.473   0.486   2.051
  248SOL    HW1  744   0.534   0.562   2.074
  248SOL    HW2  745   0.383   0.523   2.026
  249SOL     OW  746   1.732   0.132   0.037
  249SOL    HW1  747   1.813   0.122  -0.020
  249SOL    HW2  748   1.734   0.063   0.110
  250SOL     OW  749   0.676   1.610   2.018
  250SOL    HW1  750   0.685   1.630   1.921
  250SOL    HW2  751   0.613   1.533   2.031
  251SOL     OW  752   0.252   0.317   0.260
  251SOL    HW1  753   0.194   0.378   0.207
  251SOL    HW2  754   0.251   0.345   0.356
  252SOL     OW  755   1.202   1.608   1.891
  252SOL    HW1  756   1.200   1.513   1.923
  252SOL    HW2  757   1.136   1.620   1.817
  253SOL     OW  758   0.905   0.919   2.144
  253SOL    HW1  759   0.976   0.946   2.079
  253SOL    HW2  760   0.928   0.830   2.182
  254SOL     OW  761   1.492   1.626   1.900
  254SOL    HW1  762   1.392   1.620   1.894
  254SOL    HW2  763   1.530   1.630   1.807
  255SOL     OW  764   0.261   1.342   2.142
  255SOL    HW1  765   0.166   1.340   2.112
  255SOL    HW2  766   0.266   1.385   2.232
  256SOL     OW  767   0.071   0.341   1.900
  256SOL    HW1  768  -0.018   0.310   1.866
  256SOL    HW2  769   0.105   0.414   1.841
  257SOL     OW  770   0.067   0.163   2.155
  257SOL    HW1  771   0.067   0.250   2.106
  257SOL    HW2  772   0.155   0.118   2.144
  258SOL     OW  773   1.175   1.338   1.960
  258SOL    HW1  774   1.078   1.312   1.961
  258SOL    HW2  775   1.207   1.352   2.054
  259SOL     OW  776   1.234   0.310   2.300
  259SOL    HW1  777   1.305   0.240   2.306
  259SOL    HW2  778   1.265   0.393   2.346
  260SOL     OW  779   0.868   1.373   1.894
  260SOL    HW1  780   0.814   1.406   1.971
  260SOL    HW2  781   0.891   1.449   1.833
  261SOL     OW  782   1.082   0.985   1.951
  261SOL    HW1  783   1.059   1.039   1.869
  261SOL    HW2  784   1.165   0.933   1.934
  262SOL     OW  785   1.352   0.046   2.003
  262SOL    HW1  786   1.409  -0.035   1.990
  262SOL    HW2  787   1.265   0.019   2.045
  263SOL     OW  788   0.075   1.063   2.128
  263SOL    HW1  789   0.174   1.051   2.134
  263SOL    HW2  790   0.033   1.043   2.216
  264SOL     OW  791   0.877   1.641   2.214
  264SOL    HW1  792   0.810   1.631   2.141
  264SOL    HW2  793   0.856   1.723   2.267
  265SOL     OW  794   0.247   2.123   0.968
  265SOL    HW1  795   0.282   2.105   1.060
  265SOL    HW2  796   0.151   2.098   0.963
  266SOL     OW  797   0.039   2.239   0.638
  266SOL    HW1  798  -0.051   2.245   0.681
  266SOL    HW2  799   0.036   2.170   0.566
  267SOL     OW  800   0.448   2.253   1.508
  267SOL    HW1  801   0.527   2.194   1.488
  267SOL    HW2  802   0.364   2.200   1.499
  268SOL     OW  803   1.604   2.320   0.728
  268SOL    HW1  804   1.511   2.320   0.691
  268SOL    HW2  805   1.615   2.399   0.789
  269SOL     OW  806   1.586   1.985   1.469
  269SOL    HW1  807   1.610   2.065   1.413
  269SOL    HW2  808   1.586   2.011   1.565
  270SOL     OW  809   0.087   0.164   0.564
  270SOL    HW1  810   0.069   0.067   0.579
  270SOL    HW2  811   0.136   0.202   0.642
  271SOL     OW  812   0.810   1.855   0.510
  271SOL    HW1  813   0.861   1.937   0.484
  271SOL    HW2  814   0.713   1.878   0.519
  272SOL     OW  815   0.333   2.116   1.815
  272SOL    HW1  816   0.382   2.203   1.805
  272SOL    HW2  817   0.239   2.134   1.843
  273SOL     OW  818   1.271   2.205   0.938
  273SOL    HW1  819   1.180   2.163   0.938
  273SOL    HW2  820   1.332   2.153   0.998
  274SOL     OW  821   1.400   0.009   1.684
  274SOL    HW1  822   1.349   0.017   1.769
  274SOL    HW2  823   1.455  -0.075   1.684
  275SOL     OW  824   1.762   0.104   1.810
  275SOL    HW1  825   1.682   0.162   1.796
  275SOL    HW2  826   1.757   0.026   1.748
  276SOL     OW  827   0.548   2.040   0.886
  276SOL    HW1  828   0.553   2.062   0.983
  276SOL    HW2  829   0.553   2.124   0.832
  277SOL     OW  830   0.197   2.145   1.491
  277SOL    HW1  831   0.112   2.197   1.486
  277SOL    HW2  832   0.186   2.068   1.553
  278SOL     OW  833   1.407   1.971   0.438
  278SOL    HW1  834   1.387   1.940   0.345
  278SOL    HW2  835   1.506   1.983   0.449
  279SOL     OW  836   1.533   2.088   1.728
  279SOL    HW1  837   1.540   2.112   1.825
  279SOL    HW2  838   1.473   2.008   1.718
  280SOL     OW  839   0.614   1.972   0.114
  280SOL    HW1  840   0.710   1.947   0.121
  280SOL    HW2  841   0.595   2.009   0.023
  281SOL     OW  842   0.772   2.121   1.746
  281SOL    HW1  843   0.844   2.057   1.773
  281SOL    HW2  844   0.713   2.140   1.825
  282SOL     OW  845   1.392   0.108   1.409
  282SOL    HW1  846   1.379   0.063   1.497
  282SOL    HW2  847   1.344   0.195   1.408
  283SOL     OW  848   0.545   1.929   0.508
  283SOL    HW1  849   0.462   1.923   0.564
  283SOL    HW2  850   0.539   2.007   0.447
  284SOL     OW  851   0.952   2.079   0.453
  284SOL    HW1  852   0.893   2.160   0.444
  284SOL    HW2  853   1.047   2.108   0.460
  285SOL     OW  854   0.074   0.064   1.378
  285SOL    HW1  855   0.164   0.023   1.369
  285SOL    HW2  856   0.080   0.147   1.433
  286SOL     OW  857   0.572   2.076   1.151
  286SOL    HW1  858   0.618   2.001   1.198
  286SOL    HW2  859   0.483   2.092   1.192
  287SOL     OW  860   1.015   1.912   0.752
  287SOL    HW1  861   0.956   1.912   0.671
  287SOL    HW2  862   0.992   1.833   0.809
  288SOL     OW  863   0.509   2.120   0.316
  288SOL    HW1  864   0.553   2.068   0.242
  288SOL    HW2  865   0.548   2.212   0.320
  289SOL     OW  866   0.920   1.959   1.401
  289SOL    HW1  867   0.939   1.936   1.306
  289SOL    HW2  868   1.000   2.004   1.441
  290SOL     OW  869   1.005   1.970   1.766
  290SOL    HW1  870   1.018   2.043   1.699
  290SOL    HW2  871   1.056   1.889   1.737
  291SOL     OW  872   0.497   1.906   1.744
  291SOL    HW1  873   0.457   1.847   1.674
  291SOL    HW2  874   0.434   1.982   1.763
  292SOL     OW  875   0.325   2.064   1.254
  292SOL    HW1  876   0.276   2.100   1.333
  292SOL    HW2  877   0.307   1.966   1.245
  293SOL     OW  878   0.786   0.155   1.049
  293SOL    HW1  879   0.784   0.131   0.952
  293SOL    HW2  880   0.718   0.225   1.067
  294SOL     OW  881   0.298   1.930   0.626
  294SOL    HW1  882   0.275   2.024   0.648
  294SOL    HW2  883   0.308   1.877   0.710
  295SOL     OW  884   1.613   2.218   0.378
  295SOL    HW1  885   1.646   2.150   0.443
  295SOL    HW2  886   1.558   2.286   0.425
  296SOL     OW  887   1.513   2.144   0.139
  296SOL    HW1  888   1.462   2.061   0.162
  296SOL    HW2  889   1.556   2.180   0.222
  297SOL     OW  890   0.346   0.032   1.018
  297SOL    HW1  891   0.317  -0.058   0.984
  297SOL    HW2  892   0.409   0.073   0.952
  298SOL     OW  893   1.156   2.079   1.481
  298SOL    HW1  894   1.177   2.146   1.552
  298SOL    HW2  895   1.182   2.116   1.392
  299SOL     OW  896   0.065   0.071   1.101
  299SOL    HW1  897   0.147   0.017   1.079
  299SOL    HW2  898   0.049   0.068   1.200
  300SOL     OW  899   0.154   0.030   1.695
  300SOL    HW1  900   0.241   0.002   1.655
  300SOL    HW2  901   0.158   0.127   1.719
  301SOL     OW  902   0.796   0.121   0.311
  301SOL    HW1  903   0.796   0.027   0.277
  301SOL    HW2  904   0.703   0.149   0.332
  302SOL     OW  905   0.879   1.902   0.131
  302SOL    HW1  906   0.915   1.971   0.068
  302SOL    HW2  907   0.951   1.876   0.195
  303SOL     OW  908   1.720   2.001   0.517
  303SOL    HW1  909   1.794   1.997   0.450
  303SOL    HW2  910   1.703   1.910   0.555
  304SOL     OW  911   1.836   2.035   0.961
  304SOL    HW1  912   1.870   1.945   0.933
  304SOL    HW2  913   1.745   2.049   0.923
  305SOL     OW  914   1.023   2.096   0.961
  305SOL    HW1  915   1.014   2.046   0.875
  305SOL    HW2  916   1.009   2.034   1.038
  306SOL     OW  917   1.708   2.220   1.381
  306SOL    HW1  918   1.758   2.307   1.387
  306SOL    HW2  919   1.754   2.160   1.316
  307SOL     OW  920   0.673   2.061   1.496
  307SOL    HW1  921   0.758   2.043   1.447
  307SOL    HW2  922   0.693   2.085   1.590
  308SOL     OW  923   0.054   2.205   0.064
  308SOL    HW1  924  -0.001   2.165  -0.009
  308SOL    HW2  925   0.102   2.285   0.030
  309SOL     OW  926   0.062   2.044   0.310
  309SOL    HW1  927   0.065   2.120   0.245
  309SOL    HW2  928   0.138   1.982   0.291
  310SOL     OW  929   1.213   2.175   0.466
  310SOL    HW1  930   1.282   2.106   0.443
  310SOL    HW2  931   1.252   2.240   0.531
  311SOL     OW  932   1.763   2.217   1.652
  311SOL    HW1  933   1.750   2.234   1.555
  311SOL    HW2  934   1.689   2.158   1.686
  312SOL     OW  935   1.820   2.037   1.230
  312SOL    HW1  936   1.832   1.941   1.255
  312SOL    HW2  937   1.827   2.047   1.130
  313SOL     OW  938   1.428   2.081   1.119
  313SOL    HW1  939   1.471   1.999   1.159
  313SOL    HW2  940   1.397   2.141   1.193
  314SOL     OW  941   1.008   1.882   1.150
  314SOL    HW1  942   0.943   1.819   1.108
  314SOL    HW2  943   1.100   1.844   1.146
  315SOL     OW  944   1.351   1.899   0.188
  315SOL    HW1  945   1.364   1.907   0.090
  315SOL    HW2  946   1.261   1.859   0.207
  316SOL     OW  947   1.314   2.321   0.698
  316SOL    HW1  948   1.242   2.389   0.686
  316SOL    HW2  949   1.303   2.276   0.786
  317SOL     OW  950   1.586   2.077   0.877
  317SOL    HW1  951   1.516   2.085   0.947
  317SOL    HW2  952   1.583   2.156   0.817
  318SOL     OW  953   1.127   0.203   0.233
  318SOL    HW1  954   1.187   0.271   0.190
  318SOL    HW2  955   1.059   0.251   0.289
  319SOL     OW  956   1.706   0.115   2.078
  319SOL    HW1  957   1.744   0.101   1.986
  319SOL    HW2  958   1.718   0.031   2.132
  320SOL     OW  959   0.863   2.188   2.035
  320SOL    HW1  960   0.925   2.259   2.002
  320SOL    HW2  961   0.911   2.100   2.035
  321SOL     OW  962   1.410   1.964   2.269
  321SOL    HW1  963   1.394   1.938   2.174
  321SOL    HW2  964   1.507   1.987   2.281
  322SOL     OW  965   0.321   0.229   2.312
  322SOL    HW1  966   0.390   0.159   2.332
  322SOL    HW2  967   0.260   0.239   2.390
  323SOL     OW  968   0.623   1.987   1.970
  323SOL    HW1  969   0.711   1.941   1.982
  323SOL    HW2  970   0.579   1.953   1.886
  324SOL     OW  971   0.295   1.907   2.038
  324SOL    HW1  972   0.345   1.984   2.000
  324SOL    HW2  973   0.358   1.845   2.085
  325SOL     OW  974   0.961   2.084   2.288
  325SOL    HW1  975   0.901   2.159   2.261
  325SOL    HW2  976   1.053   2.120   2.306
  326SOL     OW  977   0.529   2.111   2.191
  326SOL    HW1  978   0.560   2.064   2.109
  326SOL    HW2  979   0.544   2.210   2.180
  327SOL     OW  980   0.286   1.923   0.175
  327SOL    HW1  981   0.321   2.016   0.168
  327SOL    HW2  982   0.349   1.868   0.230
  328SOL     OW  983   1.629   2.220   2.225
  328SOL    HW1  984   1.643   2.148   2.293
  328SOL    HW2  985   1.576   2.294   2.266
  329SOL     OW  986   1.512   2.149   1.990
  329SOL    HW1  987   1.462   2.065   2.011
  329SOL    HW2  988   1.568   2.175   2.069
  330SOL     OW  989   0.811   0.100   2.132
  330SOL    HW1  990   0.807   0.001   2.145
  330SOL    HW2  991   0.735   0.144   2.180
  331SOL     OW  992   1.720   1.982   0.018
  331SOL    HW1  993   1.808   1.978  -0.030
  331SOL    HW2  994   1.714   1.906   0.082
  332SOL     OW  995   0.066   2.197   1.899
  332SOL    HW1  996  -0.027   2.178   1.868
  332SOL    HW2  997   0.104   2.274   1.847
  333SOL     OW  998   0.061   2.033   2.150
  333SOL    HW1  999   0.078   2.114   2.095
  333SOL    HW2 1000   0.142   1.975   2.151
  334SOL     OW 1001   1.223   2.175   2.308
  334SOL    HW1 1002   1.290   2.101   2.295
  334SOL    HW2 1003   1.244   2.224   2.393
  335SOL     OW 1004   1.349   1.914   2.010
  335SOL    HW1 1005   1.387   1.844   1.949
  335SOL    HW2 1006   1.261   1.882   2.045
  336SOL     OW 1007   2.052   0.664   0.086
  336SOL    HW1 1008   2.000   0.625   0.161
  336SOL    HW2 1009   2.114   0.595   0.048
  337SOL     OW 1010   2.063   0.303   1.006
  337SOL    HW1 1011   2.120   0.263   1.078
  337SOL    HW2 1012   1.985   0.243   0.988
  338SOL     OW 1013   1.862   0.398   0.638
  338SOL    HW1 1014   1.770   0.410   0.675
  338SOL    HW2 1015   1.864   0.314   0.582
  339SOL     OW 1016   0.204   1.001   0.638
  339SOL    HW1 1017   0.277   0.989   0.705
  339SOL    HW2 1018   0.124   1.042   0.683
  340SOL     OW 1019   2.166   1.477   1.049
  340SOL    HW1 1020   2.107   1.401   1.024
  340SOL    HW2 1021   2.256   1.465   1.008
  341SOL     OW 1022   2.078   1.715   0.479
  341SOL    HW1 1023   2.110   1.796   0.529
  341SOL    HW2 1024   2.141   1.695   0.405
  342SOL     OW 1025   2.094   1.448   0.549
  342SOL    HW1 1026   2.068   1.545   0.550
  342SOL    HW2 1027   2.028   1.396   0.604
  343SOL     OW 1028   2.139   1.098   0.910
  343SOL    HW1 1029   2.121   1.001   0.927
  343SOL    HW2 1030   2.062   1.152   0.945
  344SOL     OW 1031   1.975   0.646   0.566
  344SOL    HW1 1032   1.938   0.555   0.584
  344SOL    HW2 1033   1.966   0.703   0.648
  345SOL     OW 1034   1.846   1.599   0.125
  345SOL    HW1 1035   1.855   1.503   0.153
  345SOL    HW2 1036   1.856   1.658   0.206
  346SOL     OW 1037   1.984   0.746   1.583
  346SOL    HW1 1038   2.063   0.758   1.643
  346SOL    HW2 1039   1.930   0.829   1.582
  347SOL     OW 1040   2.050   0.969   1.266
  347SOL    HW1 1041   2.139   0.924   1.254
  347SOL    HW2 1042   1.980   0.913   1.222
  348SOL     OW 1043   0.084   0.743   0.257
  348SOL    HW1 1044   0.138   0.827   0.254
  348SOL    HW2 1045   0.022   0.745   0.336
  349SOL     OW 1046   1.948   0.823   0.774
  349SOL    HW1 1047   2.033   0.808   0.826
  349SOL    HW2 1048   1.901   0.903   0.811
  350SOL     OW 1049   1.985   1.848   1.579
  350SOL    HW1 1050   1.987   1.822   1.675
  350SOL    HW2 1051   1.891   1.845   1.546
  351SOL     OW 1052   2.171   0.937   0.248
  351SOL    HW1 1053   2.209   0.994   0.175
  351SOL    HW2 1054   2.155   0.845   0.213
  352SOL     OW 1055   2.325   1.242   1.746
  352SOL    HW1 1056   2.307   1.265   1.650
  352SOL    HW2 1057   2.246   1.268   1.801
  353SOL     OW 1058   2.042   0.293   1.488
  353SOL    HW1 1059   1.975   0.367   1.490
  353SOL    HW2 1060   2.061   0.263   1.582
  354SOL     OW 1061   2.110   1.793   1.234
  354SOL    HW1 1062   2.169   1.744   1.299
  354SOL    HW2 1063   2.106   1.741   1.149
  355SOL     OW 1064   2.225   0.708   0.462
  355SOL    HW1 1065   2.286   0.630   0.476
  355SOL    HW2 1066   2.135   0.686   0.499
  356SOL     OW 1067   2.148   0.036   0.169
  356SOL    HW1 1068   2.186   0.128   0.164
  356SOL    HW2 1069   2.215  -0.026   0.210
  357SOL     OW 1070   1.937   0.555   1.396
  357SOL    HW1 1071   2.027   0.552   1.353
  357SOL    HW2 1072   1.932   0.632   1.459
  358SOL     OW 1073   2.281   0.814   1.267
  358SOL    HW1 1074   2.349   0.812   1.341
  358SOL    HW2 1075   2.236   0.725   1.261
  359SOL     OW 1076   1.929   1.573   1.344
  359SOL    HW1 1077   1.880   1.642   1.290
  359SOL    HW2 1078   2.026   1.595   1.346
  360SOL     OW 1079   2.177   1.105   0.507
  360SOL    HW1 1080   2.221   1.179   0.456
  360SOL    HW2 1081   2.191   1.018   0.459
  361SOL     OW 1082   0.091   0.534   0.862
  361SOL    HW1 1083   0.085   0.606   0.792
  361SOL    HW2 1084   0.123   0.574   0.948
  362SOL     OW 1085   0.065   0.907   1.039
  362SOL    HW1 1086   0.112   0.990   1.069
  362SOL    HW2 1087   0.007   0.872   1.113
  363SOL     OW 1088   2.172   0.228   1.248
  363SOL    HW1 1089   2.121   0.242   1.333
  363SOL    HW2 1090   2.173   0.131   1.226
  364SOL     OW 1091   1.904   1.310   1.279
  364SOL    HW1 1092   1.941   1.252   1.351
  364SOL    HW2 1093   1.916   1.406   1.304
  365SOL     OW 1094   2.159   0.808   0.952
  365SOL    HW1 1095   2.255   0.836   0.954
  365SOL    HW2 1096   2.152   0.710   0.971
  366SOL     OW 1097   2.173   0.539   0.985
  366SOL    HW1 1098   2.133   0.447   0.983
  366SOL    HW2 1099   2.263   0.537   0.941
  367SOL     OW 1100   1.867   1.324   0.192
  367SOL    HW1 1101   1.776   1.339   0.154
  367SOL    HW2 1102   1.874   1.229   0.225
  368SOL     OW 1103   1.952   1.792   0.936
  368SOL    HW1 1104   1.917   1.706   0.897
  368SOL    HW2 1105   2.044   1.809   0.901
  369SOL     OW 1106   1.895   0.549   1.114
  369SOL    HW1 1107   1.973   0.521   1.058
  369SOL    HW2 1108   1.922   0.550   1.210
  370SOL     OW 1109   2.057   0.516   1.726
  370SOL    HW1 1110   2.117   0.470   1.660
  370SOL    HW2 1111   1.994   0.577   1.678
  371SOL     OW 1112   2.104   1.554   1.730
  371SOL    HW1 1113   2.087   1.623   1.800
  371SOL    HW2 1114   2.112   1.464   1.773
  372SOL     OW 1115   2.007   1.135   1.471
  372SOL    HW1 1116   2.016   1.083   1.556
  372SOL    HW2 1117   2.024   1.075   1.393
  373SOL     OW 1118   1.945   1.265   1.013
  373SOL    HW1 1119   1.931   1.277   1.112
  373SOL    HW2 1120   1.871   1.210   0.976
  374SOL     OW 1121   1.995   1.796   1.845
  374SOL    HW1 1122   1.941   1.727   1.894
  374SOL    HW2 1123   2.051   1.846   1.911
  375SOL     OW 1124   2.111   0.339   0.743
  375SOL    HW1 1125   2.025   0.378   0.709
  375SOL    HW2 1126   2.101   0.315   0.839
  376SOL     OW 1127   2.217   1.312   1.508
  376SOL    HW1 1128   2.231   1.378   1.434
  376SOL    HW2 1129   2.144   1.249   1.481
  377SOL     OW 1130   2.113   1.331   0.313
  377SOL    HW1 1131   2.019   1.334   0.281
  377SOL    HW2 1132   2.120   1.376   0.403
  378SOL     OW 1133   1.976   1.007   1.723
  378SOL    HW1 1134   1.887   0.993   1.766
  378SOL    HW2 1135   2.048   0.991   1.791
  379SOL     OW 1136   1.922   0.378   0.061
  379SOL    HW1 1137   1.852   0.310   0.039
  379SOL    HW2 1138   1.973   0.401  -0.022
  380SOL     OW 1139   1.902   0.155   0.293
  380SOL    HW1 1140   1.901   0.236   0.234
  380SOL    HW2 1141   1.988   0.105   0.278
  381SOL     OW 1142   2.228   1.728   1.526
  381SOL    HW1 1143   2.143   1.779   1.542
  381SOL    HW2 1144   2.233   1.652   1.589
  382SOL     OW 1145   2.084   1.302   1.855
  382SOL    HW1 1146   2.003   1.253   1.823
  382SOL    HW2 1147   2.072   1.328   1.951
  383SOL     OW 1148   1.950   1.233   0.657
  383SOL    HW1 1149   1.945   1.184   0.744
  383SOL    HW2 1150   2.024   1.195   0.602
  384SOL     OW 1151   2.173   0.551   1.276
  384SOL    HW1 1152   2.234   0.494   1.331
  384SOL    HW2 1153   2.193   0.537   1.179
  385SOL     OW 1154   1.904   1.070   0.299
  385SOL    HW1 1155   2.004   1.073   0.294
  385SOL    HW2 1156   1.875   0.982   0.335
  386SOL     OW 1157   2.083   0.657   1.970
  386SOL    HW1 1158   2.002   0.632   2.022
  386SOL    HW2 1159   2.092   0.597   1.891
  387SOL     OW 1160   2.085   1.729   2.327
  387SOL    HW1 1161   2.113   1.800   2.391
  387SOL    HW2 1162   2.164   1.702   2.271
  388SOL     OW 1163   2.090   1.439   0.047
  388SOL    HW1 1164   2.077   1.538   0.052
  388SOL    HW2 1165   2.021   1.393   0.102
  389SOL     OW 1166   1.887   1.597   1.990
  389SOL    HW1 1167   1.870   1.500   2.007
  389SOL    HW2 1168   1.857   1.651   2.069
  390SOL     OW 1169   0.087   0.734   2.144
  390SOL    HW1 1170   0.135   0.814   2.107
  390SOL    HW2 1171   0.014   0.765   2.205
  391SOL     OW 1172   2.163   0.934   2.104
  391SOL    HW1 1173   2.245   0.973   2.062
  391SOL    HW2 1174   2.142   0.846   2.062
  392SOL     OW 1175   2.161   0.037   2.040
  392SOL    HW1 1176   2.211   0.121   2.018
  392SOL    HW2 1177   2.223  -0.026   2.087
  393SOL     OW 1178   2.230   1.080   0.014
  393SOL    HW1 1179   2.216   1.178  -0.003
  393SOL    HW2 1180   2.175   1.027  -0.050
  394SOL     OW 1181   1.859   1.320   2.050
  394SOL    HW1 1182   1.767   1.338   2.014
  394SOL    HW2 1183   1.862   1.227   2.087
  395SOL     OW 1184   2.139   0.343   0.248
  395SOL    HW1 1185   2.055   0.369   0.201
  395SOL    HW2 1186   2.117   0.310   0.340
  396SOL     OW 1187   2.105   1.356   2.135
  396SOL    HW1 1188   2.007   1.350   2.112
  396SOL    HW2 1189   2.116   1.391   2.228
  397SOL     OW 1190   1.938   0.348   1.913
  397SOL    HW1 1191   1.858   0.303   1.873
  397SOL    HW2 1192   1.977   0.411   1.846
  398SOL     OW 1193   1.967   0.166   2.193
  398SOL    HW1 1194   1.912   0.217   2.125
  398SOL    HW2 1195   2.040   0.117   2.146
  399SOL     OW 1196   1.911   1.075   2.161
  399SOL    HW1 1197   2.010   1.070   2.143
  399SOL    HW2 1198   1.877   0.983   2.180
  400SOL     OW 1199   2.087   2.120   0.993
  400SOL    HW1 1200   2.116   2.101   1.087
  400SOL    HW2 1201   1.992   2.094   0.982
  401SOL     OW 1202   1.860   2.243   0.646
  401SOL    HW1 1203   1.771   2.259   0.689
  401SOL    HW2 1204   1.853   2.163   0.586
  402SOL     OW 1205   1.991   0.150   0.572
  402SOL    HW1 1206   1.956   0.061   0.600
  402SOL    HW2 1207   2.042   0.192   0.647
  403SOL     OW 1208   2.071   2.161   1.516
  403SOL    HW1 1209   1.986   2.205   1.485
  403SOL    HW2 1210   2.049   2.080   1.570
  404SOL     OW 1211   1.935   0.049   1.396
  404SOL    HW1 1212   2.025   0.039   1.354
  404SOL    HW2 1213   1.931   0.136   1.445
  405SOL     OW 1214   0.054   2.083   1.163
  405SOL    HW1 1215   0.098   1.997   1.187
  405SOL    HW2 1216  -0.039   2.083   1.200
  406SOL     OW 1217   2.287   0.282   1.643
  406SOL    HW1 1218   2.301   0.319   1.551
  406SOL    HW2 1219   2.263   0.186   1.637
  407SOL     OW 1220   2.140   2.066   1.258
  407SOL    HW1 1221   2.122   2.099   1.351
  407SOL    HW2 1222   2.123   1.968   1.253
  408SOL     OW 1223   2.159   1.924   0.629
  408SOL    HW1 1224   2.150   2.022   0.646
  408SOL    HW2 1225   2.199   1.880   0.710
  409SOL     OW 1226   2.167   0.038   0.963
  409SOL    HW1 1227   2.143  -0.058   0.976
  409SOL    HW2 1228   2.262   0.053   0.989
  410SOL     OW 1229   2.073   0.075   1.685
  410SOL    HW1 1230   2.085  -0.014   1.641
  410SOL    HW2 1231   1.977   0.088   1.707
  411SOL     OW 1232   2.117   2.178   0.724
  411SOL    HW1 1233   2.031   2.215   0.690
  411SOL    HW2 1234   2.112   2.164   0.823
  412SOL     OW 1235   1.909   2.221   0.063
  412SOL    HW1 1236   1.858   2.169  -0.005
  412SOL    HW2 1237   1.976   2.279   0.017
  413SOL     OW 1238   1.923   2.029   0.316
  413SOL    HW1 1239   1.898   2.109   0.262
  413SOL    HW2 1240   2.012   1.994   0.285
  414SOL     OW 1241   2.161   1.905   2.037
  414SOL    HW1 1242   2.212   1.990   2.017
  414SOL    HW2 1243   2.221   1.841   2.084
  415SOL     OW 1244   2.148   1.931   0.179
  415SOL    HW1 1245   2.182   2.023   0.158
  415SOL    HW2 1246   2.215   1.884   0.237
  416SOL     OW 1247   1.933   2.193   1.909
  416SOL    HW1 1248   1.856   2.182   1.846
  416SOL    HW2 1249   1.985   2.275   1.885
  417SOL     OW 1250   1.935   2.021   2.165
  417SOL    HW1 1251   1.917   2.094   2.099
  417SOL    HW2 1252   2.022   1.977   2.142
   2.33395   2.33395   2.33395
