Protein in water
 1252
    1ETHH    EH    1   1.354   1.526   1.985 -2.5884  2.1140 -2.2801
    1ETHH    EO    2   1.427   1.600   1.997 -0.1917 -0.5522  0.0513
    1ETHH   EC1    3   1.392   1.700   2.091  0.3207  0.1330 -0.1329
    1ETHH   EC2    4   1.504   1.798   2.123 -0.7368 -0.0341  0.1444
    2SOL     OW    5   1.209   1.049   2.199 -0.5706  0.1306  0.4922
    2SOL    HW1    6   1.265   0.973   2.231 -1.3189 -0.6744 -0.0791
    2SOL    HW2    7   1.219   1.059   2.100 -2.1568 -0.6217  0.2513
    3SOL     OW    8   1.552   0.251   1.937 -0.3482 -0.3772 -0.1684
    3SOL    HW1    9   1.465   0.222   1.896  0.6053  0.4587 -2.9173
    3SOL    HW2   10   1.541   0.343   1.975 -0.9622 -0.7071  0.4544
    4SOL     OW   11   0.443   0.933   1.245 -0.1548  0.8099  0.2622
    4SOL    HW1   12   0.358   0.884   1.227 -0.8412  1.6486  1.1682
    4SOL    HW2   13   0.485   0.960   1.159  0.5413 -1.8821 -0.2777
    5SOL     OW   14   1.253   1.708   0.929 -0.3509 -0.4470 -0.0030
    5SOL    HW1   15   1.326   1.641   0.914 -0.6542 -0.9489  0.7282
    5SOL    HW2   16   1.197   1.715   0.847 -0.7284 -1.6043  0.1474
    6SOL     OW   17   1.162   1.503   1.287 -0.3446 -0.0707  0.2499
    6SOL    HW1   18   1.221   1.425   1.311 -0.4411 -0.0408  0.5932
    6SOL    HW2   19   1.112   1.482   1.203  1.1917  0.4568 -0.8240
    7SOL     OW   20   2.164   0.794   0.844  0.2814  0.0873  0.0432
    7SOL    HW1   21   2.162   0.744   0.931  0.8780 -1.7647 -0.9884
    7SOL    HW2   22   2.224   0.873   0.854  0.5046 -0.2174  1.2658
    8SOL     OW   23   2.140   1.870   1.514 -0.5885  0.2821  0.5244
    8SOL    HW1   24   2.146   1.969   1.528 -2.5214  0.4713  0.2454
    8SOL    HW2   25   2.063   1.850   1.453 -0.4387 -1.4197  0.8646
    9SOL     OW   26   2.119   0.516   0.406 -0.4369  0.2908  0.4000
    9SOL    HW1   27   2.113   0.504   0.505  0.8646  1.2691  0.6189
    9SOL    HW2   28   2.148   0.431   0.363 -0.8344 -0.0849  0.8768
   10SOL     OW   29   1.480   0.922   0.846 -0.6494  0.1300 -0.0246
   10SOL    HW1   30   1.520   0.985   0.780  0.7084 -1.2992 -0.6087
   10SOL    HW2   31   1.553   0.880   0.900 -1.5188 -0.9244  0.3475
   11SOL     OW   32   2.111   1.893   0.278  0.5850 -0.0657  0.1159
   11SOL    HW1   33   2.062   1.820   0.229 -0.1547  0.8487 -0.5103
   11SOL    HW2   34   2.065   1.980   0.263  2.3806  0.8124 -0.4782
   12SOL     OW   35   1.312   0.210   2.314  0.0660  0.5428  0.1131
   12SOL    HW1   36   1.374   0.187   2.239 -0.2990  0.0860 -0.0488
   12SOL    HW2   37   1.218   0.213   2.281 -0.1518 -0.1766  0.6540
   13SOL     OW   38   0.353   1.541   0.345  0.4887  0.2026 -0.0822
   13SOL    HW1   39   0.336   1.621   0.287  0.0588  1.3914  1.6713
   13SOL    HW2   40   0.438   1.497   0.315  0.6252  1.1767 -1.2022
   14SOL     OW   41   2.254   1.607   1.295 -1.0607  0.1193  0.6579
   14SOL    HW1   42   2.352   1.593   1.309 -1.2023 -0.9401  0.6172
   14SOL    HW2   43   2.234   1.705   1.292 -0.0482  0.3340  0.9696
   15SOL     OW   44   1.589   0.621   0.197 -0.2867 -0.9121  0.4353
   15SOL    HW1   45   1.495   0.619   0.230 -0.2711 -0.7412  0.4914
   15SOL    HW2   46   1.641   0.688   0.249 -1.0473  1.6582 -1.9652
   16SOL     OW   47   0.431   1.776   0.012 -0.5996 -0.0766 -0.7521
   16SOL    HW1   48   0.493   1.830  -0.045 -1.2805  0.3310 -1.1143
   16SOL    HW2   49   0.413   1.688  -0.033 -0.7375  0.0372 -0.9179
   17SOL     OW   50   0.926   1.599   1.895 -0.0003  0.0843 -0.0665
   17SOL    HW1   51   0.884   1.518   1.854 -0.9782 -0.3305  1.7149
   17SOL    HW2   52   0.966   1.575   1.984  0.2038  1.4287  0.2163
   18SOL     OW   53   1.917   0.750   1.304 -0.4051 -0.2685 -0.8702
   18SOL    HW1   54   1.912   0.843   1.267  1.5483 -0.5248 -1.8927
   18SOL    HW2   55   1.866   0.745   1.389  0.3955  2.0443 -0.2129
   19SOL     OW   56   1.621   1.420   1.958 -0.0461  0.5573  0.1309
   19SOL    HW1   57   1.656   1.427   1.864 -0.6301 -0.3713 -0.1662
   19SOL    HW2   58   1.566   1.501   1.979 -0.0171  0.7125 -0.3793
   20SOL     OW   59   1.262   0.988   1.058 -0.5934 -0.0827 -0.0386
   20SOL    HW1   60   1.215   0.901   1.066 -2.8654  0.9205 -1.8704
   20SOL    HW2   61   1.340   0.979   0.997 -0.2546 -1.0219  0.5200
   21SOL     OW   62   1.583   2.061   0.097  0.6865  0.0023  0.8988
   21SOL    HW1   63   1.532   2.082   0.015  0.6850  2.3220  1.4716
   21SOL    HW2   64   1.670   2.019   0.072 -0.7960 -2.5573 -0.1238
   22SOL     OW   65   1.100   0.989   0.377  0.1870  0.6902 -0.3884
   22SOL    HW1   66   1.074   1.005   0.472 -0.8355 -1.4913 -0.2741
   22SOL    HW2   67   1.186   0.937   0.374 -0.1328  0.1777 -0.6532
   23SOL     OW   68   2.111   2.085   1.821  0.3707 -0.1845  0.3149
   23SOL    HW1   69   2.096   2.043   1.911  1.8178 -0.1481  0.5923
   23SOL    HW2   70   2.023   2.104   1.777 -0.3155 -2.6402  0.5827
   24SOL     OW   71   0.169   1.523   1.312 -0.2804  0.6160 -0.5178
   24SOL    HW1   72   0.220   1.579   1.247  0.6518  0.7888  0.3403
   24SOL    HW2   73   0.167   1.428   1.280 -2.7809  1.3070 -2.5139
   25SOL     OW   74   0.150   2.224   2.308 -0.5456  0.4493  0.1244
   25SOL    HW1   75   0.158   2.308   2.254 -0.1069 -0.7982 -1.8156
   25SOL    HW2   76   0.075   2.233   2.372 -0.1930  2.5128  0.2975
   26SOL     OW   77   2.113   1.428   0.788 -0.6021  0.1804  0.1552
   26SOL    HW1   78   2.016   1.448   0.773 -0.6167 -0.4863 -0.7366
   26SOL    HW2   79   2.145   1.366   0.716  0.3176 -0.1392  0.8347
   27SOL     OW   80   0.833   1.874   0.368 -0.0242 -0.0441  0.6064
   27SOL    HW1   81   0.747   1.901   0.323  0.5892  0.4808 -0.2507
   27SOL    HW2   82   0.828   1.778   0.394  1.1438 -1.5458 -4.2398
   28SOL     OW   83   0.574   0.635   1.028  0.2147 -0.3702  0.1341
   28SOL    HW1   84   0.630   0.637   0.945  0.6690  0.7632  0.4583
   28SOL    HW2   85   0.605   0.560   1.087  3.1655  1.8035  1.4935
   29SOL     OW   86   1.298   1.971   1.341 -0.4614  0.0095  0.0814
   29SOL    HW1   87   1.256   1.908   1.276 -0.6766  0.0233  0.2077
   29SOL    HW2   88   1.382   2.008   1.301 -0.6257  0.0652 -0.2145
   30SOL     OW   89   0.731   0.632   0.187  0.0168 -0.2852 -0.0783
   30SOL    HW1   90   0.770   0.720   0.214 -0.8186  0.1402 -0.2463
   30SOL    HW2   91   0.789   0.558   0.221  0.5002  0.3206  0.4229
   31SOL     OW   92   0.178   0.628   0.828  0.3619 -0.2641 -0.3686
   31SOL    HW1   93   0.236   0.573   0.769  0.7537 -0.4751  0.2040
   31SOL    HW2   94   0.225   0.644   0.915  0.0311  0.5151 -0.3264
   32SOL     OW   95   0.877   0.869   0.225 -0.0553  0.2840 -0.0028
   32SOL    HW1   96   0.883   0.849   0.128  0.8350 -1.2140  0.3419
   32SOL    HW2   97   0.968   0.894   0.260  0.0034 -0.9891  0.8014
   33SOL     OW   98   1.851   2.247   1.913  0.3458 -0.1263  0.1982
   33SOL    HW1   99   1.839   2.224   2.009  0.5413  1.9417  0.7369
   33SOL    HW2  100   1.845   2.164   1.858  0.7124 -1.3965  2.0285
   34SOL     OW  101   0.516   1.912   0.330  0.4798 -0.1108  0.2577
   34SOL    HW1  102   0.472   1.973   0.396 -0.3439 -0.4090 -0.0105
   34SOL    HW2  103   0.450   1.844   0.299  1.5437 -1.5098  0.9982
   35SOL     OW  104   0.002   0.399   2.127 -0.1218  0.7744 -0.2240
   35SOL    HW1  105  -0.014   0.470   2.058 -0.9184 -0.7942 -1.7060
   35SOL    HW2  106  -0.067   0.327   2.117  1.5440 -0.9253  0.2674
   36SOL     OW  107   1.561   0.585   2.287  0.1363 -0.5659  0.3211
   36SOL    HW1  108   1.556   0.573   2.386 -0.4276 -2.3587  0.0955
   36SOL    HW2  109   1.598   0.675   2.266 -0.7548  0.2513  2.1641
   37SOL     OW  110   0.420   2.148   0.447  0.0429 -0.2133  0.0056
   37SOL    HW1  111   0.471   2.202   0.380  1.0888  2.0158  2.5186
   37SOL    HW2  112   0.323   2.173   0.443  0.3617  1.0976  0.4493
   38SOL     OW  113   1.056   0.615   1.997  0.0832  0.3485  0.1778
   38SOL    HW1  114   1.022   0.700   1.957 -1.1003 -0.5171 -0.6973
   38SOL    HW2  115   1.066   0.546   1.925  1.6325 -0.0838  0.7712
   39SOL     OW  116   2.229   1.284   1.002  0.2293 -0.1392 -0.0621
   39SOL    HW1  117   2.211   1.313   1.096  5.2533  0.0917  0.9242
   39SOL    HW2  118   2.190   1.351   0.938  0.7320  2.1238  1.9494
   40SOL     OW  119   1.421   0.224   1.292  0.4276 -0.2174 -0.1855
   40SOL    HW1  120   1.466   0.137   1.275 -0.5414 -1.0296  1.3285
   40SOL    HW2  121   1.389   0.227   1.387  0.2471  1.6871 -0.2896
   41SOL     OW  122   1.372   2.071   2.288  0.1364 -0.5922  0.5009
   41SOL    HW1  123   1.421   2.141   2.236 -0.8027 -0.6030 -0.4185
   41SOL    HW2  124   1.291   2.042   2.237  0.3278 -2.1128  1.0328
   42SOL     OW  125   1.548   0.766   1.692  0.4529  0.1434  0.5072
   42SOL    HW1  126   1.474   0.699   1.681  0.4241  0.4489 -1.2082
   42SOL    HW2  127   1.519   0.838   1.755 -0.3589 -0.2327  0.5653
   43SOL     OW  128   0.290   0.540   1.841 -0.1904 -0.8095 -0.7126
   43SOL    HW1  129   0.259   0.500   1.927 -1.5754 -0.0671 -0.8457
   43SOL    HW2  130   0.210   0.566   1.786  0.6696 -1.3346 -2.2516
   44SOL     OW  131   1.714   0.010   1.511  0.0456 -0.0532  0.4295
   44SOL    HW1  132   1.755   0.079   1.452 -1.6732  0.7033  0.0879
   44SOL    HW2  133   1.723   0.037   1.607  1.6895 -0.6476  0.4508
   45SOL     OW  134   0.261   2.107   1.127 -0.0518 -0.7946  0.1042
   45SOL    HW1  135   0.267   2.102   1.227  0.0065  0.7052  0.1964
   45SOL    HW2  136   0.327   2.045   1.086 -0.1041 -1.4527  1.0011
   46SOL     OW  137   0.961   1.127   1.904 -0.4088  0.3007  0.3275
   46SOL    HW1  138   1.058   1.121   1.927 -0.4395 -0.8356  0.1854
   46SOL    HW2  139   0.907   1.133   1.988 -0.2686  0.0621  0.4351
   47SOL     OW  140   0.765   1.629   0.475  0.0566 -0.2749 -0.0760
   47SOL    HW1  141   0.717   1.543   0.455 -0.6184  0.0720  0.0557
   47SOL    HW2  142   0.735   1.664   0.563  1.1999 -0.5043  0.4182
   48SOL     OW  143   1.684   2.185   0.304 -0.1344 -0.3125 -0.1289
   48SOL    HW1  144   1.647   2.164   0.394  1.7979  1.2273  1.0667
   48SOL    HW2  145   1.621   2.152   0.233 -2.5030 -0.0320  1.7865
   49SOL     OW  146   1.008   0.837   2.352 -0.7407 -0.0602  0.5337
   49SOL    HW1  147   1.037   0.928   2.383  0.0958  0.2709 -1.1288
   49SOL    HW2  148   0.959   0.846   2.265  0.4199 -1.2819 -0.2755
   50SOL     OW  149   1.980   0.153   0.385 -0.0491  0.3617  0.3309
   50SOL    HW1  150   1.909   0.152   0.314  0.1972 -2.6714  0.0554
   50SOL    HW2  151   1.937   0.141   0.475  0.1209 -2.1803  0.1040
   51SOL     OW  152   1.499   1.271   0.448  0.1197 -0.1041 -0.3826
   51SOL    HW1  153   1.453   1.204   0.390  1.3103 -0.9219 -0.3853
   51SOL    HW2  154   1.431   1.322   0.500 -0.9261  0.1333 -1.9395
   52SOL     OW  155   1.874   2.070   1.688 -0.2794 -0.2359 -0.3034
   52SOL    HW1  156   1.780   2.079   1.655 -0.0641  0.4458 -0.7656
   52SOL    HW2  157   1.934   2.049   1.611 -0.0608 -0.7020 -0.0039
   53SOL     OW  158   2.221   1.518   0.144 -0.5204 -0.3230  0.1738
   53SOL    HW1  159   2.242   1.491   0.238 -1.0622  1.4274  0.8059
   53SOL    HW2  160   2.303   1.556   0.101 -0.8839  1.1580  0.7583
   54SOL     OW  161   1.643   1.081   0.297 -0.0340  0.4431  0.4881
   54SOL    HW1  162   1.546   1.068   0.315 -0.2389  2.2584  0.7586
   54SOL    HW2  163   1.660   1.177   0.273  1.5020 -0.1239 -0.7797
   55SOL     OW  164   0.361   0.087   0.877  0.5597 -0.0004 -0.4755
   55SOL    HW1  165   0.403   0.027   0.808  1.6344 -0.1489  0.3014
   55SOL    HW2  166   0.433   0.134   0.928 -0.2182 -0.6475  1.2183
   56SOL     OW  167   0.662   0.920   1.977  0.2613  0.2929 -0.5205
   56SOL    HW1  168   0.565   0.915   1.953  0.1440  0.9043 -0.1956
   56SOL    HW2  169   0.686   1.015   1.998  0.8147  0.0694 -0.1301
   57SOL     OW  170   1.269   0.738   2.119  0.6328  0.0327 -0.1667
   57SOL    HW1  171   1.297   0.675   2.191 -1.8931  1.5443  2.2450
   57SOL    HW2  172   1.182   0.708   2.080  0.2522  1.1073 -0.1664
   58SOL     OW  173   0.564   2.124   0.112  0.5133 -0.1045  0.1613
   58SOL    HW1  174   0.543   2.031   0.142  1.7109 -0.8874 -1.3632
   58SOL    HW2  175   0.513   2.146   0.029  0.0761  0.6824  0.6298
   59SOL     OW  176   2.177   1.692   1.694  0.5701  0.3271 -0.0020
   59SOL    HW1  177   2.157   1.755   1.619  0.0576  0.9555  0.6578
   59SOL    HW2  178   2.111   1.705   1.767  1.0295 -0.3279  0.5391
   60SOL     OW  179   1.059   0.024   0.786 -0.4087  0.5987 -1.2695
   60SOL    HW1  180   1.094  -0.064   0.754 -0.8344 -0.5131  1.2287
   60SOL    HW2  181   1.129   0.094   0.772  0.5384 -0.4418 -1.8189
   61SOL     OW  182   1.482   0.787   1.409 -0.6960 -0.1697  0.5007
   61SOL    HW1  183   1.527   0.758   1.493 -1.2393 -0.8764  0.5512
   61SOL    HW2  184   1.521   0.739   1.331  0.9329  1.6841  0.1411
   62SOL     OW  185   0.482   1.454   0.818  0.6287 -0.2346 -0.0740
   62SOL    HW1  186   0.397   1.455   0.872 -0.3581 -0.9267 -1.5646
   62SOL    HW2  187   0.550   1.396   0.864  0.3586  0.4684  1.2236
   63SOL     OW  188   1.807   1.200   0.932 -0.3007  0.5672 -0.1411
   63SOL    HW1  189   1.754   1.121   0.961 -0.2668  0.6594  0.1753
   63SOL    HW2  190   1.903   1.185   0.954 -0.5280  1.4146  1.4673
   64SOL     OW  191   0.505   0.689   0.364 -0.5610 -0.1240  0.1301
   64SOL    HW1  192   0.497   0.667   0.462 -0.4316 -1.3265 -0.1137
   64SOL    HW2  193   0.598   0.671   0.334 -0.5424  0.4691 -0.1707
   65SOL     OW  194   0.887   0.511   1.132 -0.6605 -0.5694 -0.1037
   65SOL    HW1  195   0.912   0.501   1.036  0.2171 -0.4299  0.1083
   65SOL    HW2  196   0.905   0.605   1.161  1.0183 -1.1299  0.7459
   66SOL     OW  197   1.369   1.002   1.581  0.1023 -0.2120 -0.6120
   66SOL    HW1  198   1.421   0.940   1.522  0.2701 -1.2774  0.6406
   66SOL    HW2  199   1.293   0.953   1.623 -0.4087  0.7081 -0.4494
   67SOL     OW  200   1.247   1.413   0.600 -0.2069 -0.0849  0.3790
   67SOL    HW1  201   1.190   1.333   0.580 -0.5405 -0.0114  1.0003
   67SOL    HW2  202   1.223   1.488   0.539 -1.1579  0.1198  1.0039
   68SOL     OW  203   1.879   0.404   1.257 -0.3285  0.0336 -0.3020
   68SOL    HW1  204   1.791   0.413   1.304 -1.0873 -0.5419 -1.5863
   68SOL    HW2  205   1.908   0.493   1.223 -0.7214  0.1243 -0.4019
   69SOL     OW  206   2.030   0.762   0.357 -0.0975 -0.4040 -0.3567
   69SOL    HW1  207   2.065   0.672   0.384 -1.0093 -1.1180 -1.5441
   69SOL    HW2  208   1.996   0.810   0.438  2.0674 -0.3640  0.5717
   70SOL     OW  209   1.017   0.198   2.244 -0.0628 -0.3288  0.1750
   70SOL    HW1  210   0.976   0.288   2.229  0.4121 -0.6062 -3.2726
   70SOL    HW2  211   0.983   0.160   2.330 -0.1671  3.1626  1.7575
   71SOL     OW  212   1.836   1.447   1.153 -0.0056  0.1778  0.0710
   71SOL    HW1  213   1.781   1.379   1.202  1.5485 -1.3387 -0.2444
   71SOL    HW2  214   1.852   1.416   1.059  1.9926  0.2356  0.3716
   72SOL     OW  215   1.928   1.127   0.037  0.2126  0.3872  0.1231
   72SOL    HW1  216   1.954   1.066  -0.038 -0.4246  0.2437  0.0177
   72SOL    HW2  217   1.979   1.212   0.029  0.3575  0.2633 -0.3174
   73SOL     OW  218   0.904   0.162   0.181  0.3133  0.6914 -0.0863
   73SOL    HW1  219   0.977   0.108   0.223  0.2948 -0.0912 -1.0198
   73SOL    HW2  220   0.818   0.112   0.188  0.5056  0.0565 -1.9652
   74SOL     OW  221   1.490   1.620   0.628  0.6011  0.0869  0.0447
   74SOL    HW1  222   1.411   1.568   0.597 -0.1342  0.6390  0.9612
   74SOL    HW2  223   1.561   1.558   0.660  0.5860 -0.4145 -0.8748
   75SOL     OW  224   1.670   1.108   2.311 -0.1733 -0.0606 -0.0958
   75SOL    HW1  225   1.584   1.142   2.349 -0.2972  0.4598 -0.8311
   75SOL    HW2  226   1.742   1.118   2.379 -0.8819 -1.4249  0.8914
   76SOL     OW  227   1.157   0.710   0.996 -0.0610  0.3083 -0.5136
   76SOL    HW1  228   1.251   0.677   0.990 -0.8137 -2.3614  1.1157
   76SOL    HW2  229   1.119   0.722   0.904  1.5737  0.5731 -1.1657
   77SOL     OW  230   1.412   1.899   0.211  1.0202  0.4728  0.2955
   77SOL    HW1  231   1.436   1.925   0.305  1.4527  1.1869 -0.0168
   77SOL    HW2  232   1.464   1.954   0.146 -1.0481  1.6496 -0.3975
   78SOL     OW  233   1.816   1.724   1.226  1.0344 -0.2691  0.0338
   78SOL    HW1  234   1.848   1.640   1.183  0.8222  0.3914 -1.4393
   78SOL    HW2  235   1.756   1.774   1.163 -0.9004 -0.2504  1.8275
   79SOL     OW  236   2.012   1.088   1.969 -0.3588 -0.3823 -0.5419
   79SOL    HW1  237   1.925   1.133   1.990 -0.1390  0.2680 -1.0280
   79SOL    HW2  238   2.088   1.140   2.008 -0.2141 -1.2546  0.3747
   80SOL     OW  239   1.425   0.575   1.017 -0.0829 -0.0508 -0.0582
   80SOL    HW1  240   1.372   0.491   1.005  0.5940 -0.1236 -2.7618
   80SOL    HW2  241   1.425   0.628   0.932  2.4404  0.9534  0.5149
   81SOL     OW  242   1.587   1.806   1.082 -0.2245 -0.2512  0.2367
   81SOL    HW1  243   1.609   1.839   0.991  1.9062  0.8249  1.1115
   81SOL    HW2  244   1.545   1.715   1.075  0.8675 -0.6369 -1.7676
   82SOL     OW  245   1.811   0.698   1.576 -0.3155 -0.0314 -0.3195
   82SOL    HW1  246   1.737   0.736   1.631  0.1542 -0.0106  0.3052
   82SOL    HW2  247   1.786   0.605   1.547 -0.9810  0.3246 -0.9020
   83SOL     OW  248   1.540   0.234   0.128  0.1450 -0.1361  0.0333
   83SOL    HW1  249   1.590   0.285   0.058  1.9604 -1.9633 -0.0515
   83SOL    HW2  250   1.463   0.186   0.085 -0.2271  0.7228 -0.2712
   84SOL     OW  251   0.213   1.229   0.582 -0.3475  0.0046  0.0369
   84SOL    HW1  252   0.283   1.300   0.592  0.5703 -0.5848 -1.9761
   84SOL    HW2  253   0.213   1.171   0.663  1.5162 -0.0140  0.0424
   85SOL     OW  254   0.788   1.116   1.652 -0.1754  0.3257  0.6712
   85SOL    HW1  255   0.822   1.080   1.739 -2.6218 -0.9258  1.1471
   85SOL    HW2  256   0.753   1.041   1.596 -1.4539  1.4643 -0.1028
   86SOL     OW  257   0.458   0.176   1.324 -0.0306 -0.0463  0.2597
   86SOL    HW1  258   0.499   0.230   1.250 -0.7332  1.1332  0.7067
   86SOL    HW2  259   0.400   0.105   1.285  0.0895  0.1778 -0.3389
   87SOL     OW  260   2.258   2.353   2.342 -0.8173 -0.1779 -0.0532
   87SOL    HW1  261   2.171   2.316   2.376 -0.1291 -2.0791 -0.3079
   87SOL    HW2  262   2.271   2.327   2.247 -0.1996  0.5343 -0.1691
   88SOL     OW  263   0.641   0.384   1.149  0.6040 -0.5639 -0.1192
   88SOL    HW1  264   0.736   0.414   1.139  1.1203 -1.9542  0.4122
   88SOL    HW2  265   0.615   0.388   1.246 -0.7547  2.3046 -0.5584
   89SOL     OW  266   2.152   0.214   0.982 -0.3685  0.6098 -0.2944
   89SOL    HW1  267   2.160   0.122   1.021  3.1033  1.4840  1.2564
   89SOL    HW2  268   2.217   0.224   0.906  0.9805  2.4326  1.0304
   90SOL     OW  269   1.427   1.487   0.942 -0.0501  0.1003 -0.0571
   90SOL    HW1  270   1.444   1.485   1.041  1.1778  0.7871 -0.2451
   90SOL    HW2  271   1.510   1.461   0.894  0.3680  2.9362 -0.9864
   91SOL     OW  272   0.737   0.195   2.159  0.1359  0.2631 -0.7223
   91SOL    HW1  273   0.760   0.282   2.204 -0.3337 -0.4465  0.9462
   91SOL    HW2  274   0.652   0.206   2.107  0.0173  0.7750 -0.4255
   92SOL     OW  275   2.129   2.355   0.609  0.3165 -0.0194  0.2333
   92SOL    HW1  276   2.189   2.430   0.640 -0.6406  0.6680  0.4533
   92SOL    HW2  277   2.163   2.319   0.522 -0.1370  1.8026 -0.7289
   93SOL     OW  278   1.707   0.842   2.300 -0.7059 -0.3892 -0.2953
   93SOL    HW1  279   1.693   0.941   2.301 -1.7317 -0.4436 -3.3862
   93SOL    HW2  280   1.804   0.822   2.314 -0.4826  1.0500  0.2815
   94SOL     OW  281   0.268   0.482   0.398 -0.1036 -0.1785 -0.2370
   94SOL    HW1  282   0.192   0.497   0.335 -2.3544  0.0147  2.4284
   94SOL    HW2  283   0.308   0.570   0.423  0.9096 -0.2673 -1.4941
   95SOL     OW  284   0.485   1.872   1.053 -0.1735 -0.6061 -0.0279
   95SOL    HW1  285   0.519   1.910   1.139 -1.1044 -0.2212  0.1766
   95SOL    HW2  286   0.559   1.823   1.007  0.9527  1.0807 -0.0933
   96SOL     OW  287   0.646   0.522   1.440 -0.6316  0.1754 -0.2935
   96SOL    HW1  288   0.719   0.584   1.411  0.5468 -1.5269 -1.1156
   96SOL    HW2  289   0.557   0.566   1.429  0.1108  1.2667 -2.0788
   97SOL     OW  290   0.036   1.955   1.798 -0.3467  0.3710 -0.0175
   97SOL    HW1  291  -0.043   1.952   1.737  1.5633  1.2040 -2.6520
   97SOL    HW2  292   0.073   2.048   1.800  2.4517 -0.6528 -1.4187
   98SOL     OW  293   1.503   2.290   2.100  0.4542  0.0360 -0.1873
   98SOL    HW1  294   1.440   2.337   2.038 -0.0997 -0.9972 -0.4162
   98SOL    HW2  295   1.570   2.356   2.135  3.2981 -0.0893 -4.9950
   99SOL     OW  296   1.038   1.484   2.135  0.0008  0.4131 -0.2898
   99SOL    HW1  297   0.998   1.406   2.185  0.5601  1.2321  1.4653
   99SOL    HW2  298   1.024   1.568   2.187  1.6344  1.1199 -0.9566
  100SOL     OW  299   2.145   0.996   0.238  0.1874  0.1211 -0.7970
  100SOL    HW1  300   2.100   0.911   0.266 -1.3700  1.1040 -0.2751
  100SOL    HW2  301   2.098   1.033   0.158  1.1493  0.2737 -1.3048
  101SOL     OW  302   0.928   1.260   2.308  0.0178 -0.1443  0.0598
  101SOL    HW1  303   0.982   1.187   2.350  1.6282  1.7285  1.3701
  101SOL    HW2  304   0.860   1.221   2.247  1.6129 -2.6839 -0.1617
  102SOL     OW  305   0.639   2.200   1.543 -0.2175  0.1234  0.2876
  102SOL    HW1  306   0.582   2.129   1.502  2.2216 -0.8042 -1.6218
  102SOL    HW2  307   0.586   2.285   1.552 -1.7622 -0.5835 -1.8219
  103SOL     OW  308   0.007   1.018   0.418  0.1405 -0.3298 -0.2061
  103SOL    HW1  309  -0.054   0.996   0.342 -0.4675 -0.4552  0.3208
  103SOL    HW2  310   0.031   0.935   0.467 -0.1641 -0.1396  0.2681
  104SOL     OW  311   1.472   0.084   0.525 -0.2076 -0.1934 -0.0201
  104SOL    HW1  312   1.509   0.164   0.477  1.4528 -1.0372 -0.1668
  104SOL    HW2  313   1.547   0.028   0.560 -1.3337 -2.5245 -1.2497
  105SOL     OW  314   0.959   1.936   1.587 -0.2367  0.5408 -0.7540
  105SOL    HW1  315   1.054   1.933   1.619 -0.4200  0.4945 -0.2108
  105SOL    HW2  316   0.953   1.997   1.508 -0.1119  2.1884  0.4680
  106SOL     OW  317   1.296   1.994   0.889 -0.0035  0.3439 -0.4044
  106SOL    HW1  318   1.208   2.035   0.913 -0.3640 -0.6150 -0.0699
  106SOL    HW2  319   1.290   1.894   0.898  1.7029  0.3925  1.5674
  107SOL     OW  320   1.246   1.110   1.936 -0.3629 -0.0527  0.1624
  107SOL    HW1  321   1.240   1.019   1.895  1.2939 -0.6848  1.2571
  107SOL    HW2  322   1.315   1.164   1.888 -1.6264  0.7860 -0.7427
  108SOL     OW  323   0.058   1.239   1.973  0.2178 -0.0452  0.2337
  108SOL    HW1  324   0.113   1.291   1.908  1.6762 -0.2429  1.2818
  108SOL    HW2  325  -0.017   1.296   2.007 -1.4918 -0.4156 -2.7214
  109SOL     OW  326   0.464   0.832   2.236  0.4565  0.0197  0.5414
  109SOL    HW1  327   0.384   0.782   2.204  1.0968  0.1623 -1.3242
  109SOL    HW2  328   0.540   0.768   2.247  0.9066  0.3442 -0.5810
  110SOL     OW  329   1.692   0.353   2.328  0.2443  0.3865  0.5447
  110SOL    HW1  330   1.743   0.372   2.412  0.4453  1.0577  0.2719
  110SOL    HW2  331   1.668   0.439   2.283 -0.1651  0.0405  0.0926
  111SOL     OW  332   0.715   1.079   0.282  0.5903  0.1816  0.0915
  111SOL    HW1  333   0.765   1.139   0.346  0.2806  0.2782  0.2469
  111SOL    HW2  334   0.776   1.008   0.249  0.4621 -0.5494  1.3716
  112SOL     OW  335   1.383   0.617   0.739  0.5286  0.3090  0.1331
  112SOL    HW1  336   1.365   0.695   0.680  1.5703  0.2494 -0.2620
  112SOL    HW2  337   1.442   0.552   0.692  1.4765  0.3265  1.2798
  113SOL     OW  338   0.014   2.226   0.234 -0.7952 -0.1681  0.8347
  113SOL    HW1  339   0.072   2.237   0.314 -0.6743  0.1528  0.7037
  113SOL    HW2  340  -0.081   2.247   0.259 -0.8813 -0.8252  1.0815
  114SOL     OW  341   1.221   1.255   1.028 -0.1304  0.2924 -0.5628
  114SOL    HW1  342   1.231   1.158   1.047 -0.1296  0.1765 -1.1382
  114SOL    HW2  343   1.282   1.308   1.087 -0.7462 -0.0001  0.3379
  115SOL     OW  344   1.080   1.080   0.090  0.0751 -0.6580  0.4690
  115SOL    HW1  345   1.097   1.097   0.187 -1.6916  1.4284  0.4698
  115SOL    HW2  346   1.156   1.115   0.036  0.7795 -1.2582  1.0715
  116SOL     OW  347   0.517   1.104   1.005  0.1524  0.8636  0.4504
  116SOL    HW1  348   0.424   1.135   1.025 -0.7271 -0.2512 -1.8238
  116SOL    HW2  349   0.560   1.168   0.941 -0.4082 -0.6107 -1.4485
  117SOL     OW  350   2.330   1.885   0.953 -0.2979 -0.1381  0.2448
  117SOL    HW1  351   2.324   1.786   0.949 -3.0279  0.0237 -0.0304
  117SOL    HW2  352   2.240   1.924   0.971  0.8220  2.2779  0.8918
  118SOL     OW  353   0.236   0.214   1.711 -0.0713 -0.0050 -0.1852
  118SOL    HW1  354   0.270   0.301   1.746 -0.8010  0.1045  0.2428
  118SOL    HW2  355   0.140   0.223   1.686 -0.0797 -0.6179 -0.3797
  119SOL     OW  356   0.233   1.466   0.945  0.0059 -0.0416  0.2565
  119SOL    HW1  357   0.205   1.481   0.850  1.0349 -1.2839 -0.2475
  119SOL    HW2  358   0.249   1.554   0.989 -1.7959  0.6041 -0.3082
  120SOL     OW  359   0.794   2.236   0.617  0.3798 -0.0395 -0.3113
  120SOL    HW1  360   0.861   2.287   0.670 -1.3548 -0.3071  2.2404
  120SOL    HW2  361   0.815   2.138   0.620  0.1539 -0.0763  0.0815
  121SOL     OW  362   2.169   2.137   1.561 -0.3515  0.3774 -0.2882
  121SOL    HW1  363   2.191   2.232   1.539 -0.6563  0.3804 -0.6041
  121SOL    HW2  364   2.170   2.124   1.660  0.0424  0.6221 -0.2597
  122SOL     OW  365   2.211   0.273   0.295  0.1452  0.1937  0.2071
  122SOL    HW1  366   2.295   0.227   0.326 -0.2332 -0.2775  0.5290
  122SOL    HW2  367   2.132   0.216   0.315 -0.4301  1.4014  1.4904
  123SOL     OW  368   0.402   1.324   2.241  0.1113 -0.3410 -0.3267
  123SOL    HW1  369   0.344   1.320   2.323  0.6347 -1.1604  0.0130
  123SOL    HW2  370   0.402   1.418   2.205 -0.0582  0.0498  0.6635
  124SOL     OW  371   0.443   1.050   1.497 -0.2579 -0.2022  0.2947
  124SOL    HW1  372   0.416   0.994   1.419 -0.9108  1.2297 -0.5296
  124SOL    HW2  373   0.398   1.016   1.580 -1.0864 -0.5643 -0.2952
  125SOL     OW  374   1.712   1.231   1.532 -0.0540  0.2776  0.2194
  125SOL    HW1  375   1.801   1.202   1.499  0.3638  1.9205 -0.1447
  125SOL    HW2  376   1.719   1.255   1.629 -0.3226 -0.5119  0.4366
  126SOL     OW  377   0.270   1.767   0.223 -0.0297 -0.1635 -0.3786
  126SOL    HW1  378   0.315   1.784   0.136 -0.7090 -0.4820 -0.7946
  126SOL    HW2  379   0.199   1.835   0.238 -0.2517 -0.4117 -0.3028
  127SOL     OW  380   0.957   0.775   1.190  0.2350  0.2203  0.0604
  127SOL    HW1  381   0.880   0.817   1.141  0.7432 -0.0213 -0.9719
  127SOL    HW2  382   1.037   0.775   1.130  0.8995  0.0160  0.9520
  128SOL     OW  383   1.272   1.238   1.328  0.0032  0.0734  0.0295
  128SOL    HW1  384   1.346   1.186   1.371  0.6580  1.6042  0.7965
  128SOL    HW2  385   1.188   1.224   1.379  0.1199 -0.4203  0.0891
  129SOL     OW  386   0.422   1.379   0.572 -0.1731 -0.6291  0.3034
  129SOL    HW1  387   0.437   1.424   0.660  1.8894  1.1767 -0.9525
  129SOL    HW2  388   0.371   1.440   0.511  0.1582 -1.0977 -0.4527
  130SOL     OW  389   0.957   0.842   1.806  0.0613 -0.3771 -0.0430
  130SOL    HW1  390   0.906   0.767   1.763  0.3403 -2.0198  2.3741
  130SOL    HW2  391   0.903   0.880   1.881  1.0195  0.0519  0.4385
  131SOL     OW  392   1.255   1.699   0.158  0.2586 -0.0086 -0.1345
  131SOL    HW1  393   1.321   1.630   0.128  0.7787  0.7271 -0.6991
  131SOL    HW2  394   1.303   1.786   0.175 -0.1533 -0.1687  2.0110
  132SOL     OW  395   1.581   0.742   0.511  0.2567 -0.0583  0.5045
  132SOL    HW1  396   1.621   0.702   0.593 -1.3522 -1.1206  0.7999
  132SOL    HW2  397   1.652   0.789   0.459  1.1580  1.3112  2.8844
  133SOL     OW  398   0.137   0.286   0.563 -0.7207  0.0567 -0.4101
  133SOL    HW1  399   0.174   0.197   0.537  0.0578  0.6954 -1.4702
  133SOL    HW2  400   0.173   0.357   0.503 -1.3358  1.0998  0.4333
  134SOL     OW  401   2.033   0.626   0.118  0.4576 -0.2795 -0.7572
  134SOL    HW1  402   2.096   0.551   0.098  0.0331 -1.4747  2.0030
  134SOL    HW2  403   2.054   0.664   0.208 -1.2661  0.8766 -0.8116
  135SOL     OW  404   1.647   1.265   1.284 -0.6145  0.0975  0.5404
  135SOL    HW1  405   1.662   1.263   1.383  0.4200  0.5138  0.3960
  135SOL    HW2  406   1.632   1.172   1.251 -1.0083 -0.0380  1.0910
  136SOL     OW  407   2.185   1.319   2.089 -0.3474  0.2677  0.6857
  136SOL    HW1  408   2.261   1.362   2.137 -0.0255  1.7328 -1.0828
  136SOL    HW2  409   2.099   1.356   2.123 -0.2546 -0.7615  2.0826
  137SOL     OW  410   1.952   1.776   1.847  0.6019  0.4837 -0.4864
  137SOL    HW1  411   1.950   1.853   1.912  0.0788  0.1836 -0.1457
  137SOL    HW2  412   1.881   1.789   1.778  0.9877  0.6694 -0.8499
  138SOL     OW  413   1.574   0.626   1.222  0.0050  0.3527 -0.3803
  138SOL    HW1  414   1.516   0.612   1.142  0.5005 -0.1518 -0.6572
  138SOL    HW2  415   1.565   0.548   1.283 -1.6173  1.4710  0.8557
  139SOL     OW  416   0.071   1.220   0.022 -0.4540  0.0961 -0.6017
  139SOL    HW1  417  -0.015   1.186   0.061 -0.1165  0.5878  0.5905
  139SOL    HW2  418   0.128   1.142  -0.006 -0.3583 -0.3089  0.6620
  140SOL     OW  419   1.923   0.984   1.511  0.5594  0.4927 -0.2978
  140SOL    HW1  420   1.856   0.917   1.542  2.0727 -1.5880 -1.3712
  140SOL    HW2  421   1.980   1.013   1.588  0.8379 -0.5682 -0.1046
  141SOL     OW  422   1.888   1.531   0.687 -0.0288  0.6459  0.4083
  141SOL    HW1  423   1.892   1.626   0.717  2.1539  0.0022  2.2628
  141SOL    HW2  424   1.939   1.521   0.601  0.4774  0.9842  0.6667
  142SOL     OW  425   1.907   0.350   1.003  0.3327 -0.2359 -0.1913
  142SOL    HW1  426   1.879   0.337   1.098  0.5392  1.5687  0.1344
  142SOL    HW2  427   1.997   0.310   0.989 -0.0648 -1.2659  0.1485
  143SOL     OW  428   1.684   2.145   0.578 -0.1987 -0.2614 -0.9556
  143SOL    HW1  429   1.753   2.077   0.602 -0.7077 -0.5922 -0.4144
  143SOL    HW2  430   1.599   2.126   0.628 -0.2579  0.9375 -0.5673
  144SOL     OW  431   1.517   2.039   1.203 -0.0005 -0.9178  0.0068
  144SOL    HW1  432   1.584   2.077   1.267  1.2753 -3.1643  0.0337
  144SOL    HW2  433   1.556   1.960   1.156 -0.9371  0.5815 -3.5044
  145SOL     OW  434   1.337   0.278   1.574  0.3297 -0.5933  0.2338
  145SOL    HW1  435   1.242   0.295   1.549  0.9338  0.3322 -1.4840
  145SOL    HW2  436   1.347   0.184   1.608 -1.1088 -0.8176  0.0344
  146SOL     OW  437   0.128   1.736   1.912  0.1671  0.0398 -0.3777
  146SOL    HW1  438   0.077   1.808   1.864 -0.3035 -0.1437 -0.1584
  146SOL    HW2  439   0.223   1.764   1.924  0.0133  0.5704 -0.4102
  147SOL     OW  440   0.552   1.897   1.358 -0.5343  0.0848  0.3239
  147SOL    HW1  441   0.543   1.804   1.394  0.2629 -0.2088 -0.2378
  147SOL    HW2  442   0.648   1.922   1.351 -0.6694  0.1366 -1.6055
  148SOL     OW  443   0.081   0.967   1.750  0.1753  0.6369  0.1129
  148SOL    HW1  444   0.168   1.016   1.741  1.5745 -2.1903 -2.5686
  148SOL    HW2  445   0.024   0.984   1.669  0.0309 -0.8941 -0.1244
  149SOL     OW  446   1.544   0.991   1.849  0.1863  0.1286 -0.6659
  149SOL    HW1  447   1.629   1.016   1.895  0.9719 -0.2720 -1.8650
  149SOL    HW2  448   1.503   1.072   1.807 -0.4927  0.4799  0.6440
  150SOL     OW  449   0.602   0.313   0.469  0.0527 -0.1794  0.0283
  150SOL    HW1  450   0.642   0.230   0.507 -2.2083 -0.4507  1.9242
  150SOL    HW2  451   0.516   0.291   0.423  1.0503  0.6644 -2.2578
  151SOL     OW  452   0.491   0.734   0.620 -0.1558  0.0717 -0.2652
  151SOL    HW1  453   0.520   0.646   0.660  1.5427 -0.3437 -2.3188
  151SOL    HW2  454   0.499   0.806   0.689  1.2306 -0.8955  0.6153
  152SOL     OW  455   1.500   0.517   2.005  0.3425 -0.2085  0.0841
  152SOL    HW1  456   1.510   0.499   2.103 -0.9416  1.2281  0.4867
  152SOL    HW2  457   1.480   0.613   1.990  1.0948 -0.3023 -1.6484
  153SOL     OW  458   0.705   1.613   2.042  0.8265 -0.5504  0.3252
  153SOL    HW1  459   0.753   1.635   2.127  0.0404 -0.4594  0.7424
  153SOL    HW2  460   0.763   1.639   1.964  2.2254 -2.1015  0.8158
  154SOL     OW  461   2.025   0.470   1.812  0.4428  0.6558 -0.5922
  154SOL    HW1  462   2.063   0.382   1.842 -0.1359 -0.2041 -2.3485
  154SOL    HW2  463   1.931   0.478   1.844 -0.0282 -0.0683 -1.7843
  155SOL     OW  464   1.258   2.194   0.163 -0.4888  0.4736  0.0725
  155SOL    HW1  465   1.319   2.148   0.098  1.1576  0.0386  1.8937
  155SOL    HW2  466   1.203   2.125   0.211 -1.1047  0.7359 -0.2504
  156SOL     OW  467   1.073   0.308   1.478  0.2461  0.0795 -0.0721
  156SOL    HW1  468   0.986   0.309   1.528 -0.0924  1.5598 -0.6562
  156SOL    HW2  469   1.054   0.308   1.379  0.9227  0.8575 -0.1999
  157SOL     OW  470   2.247   0.426   1.138  0.3585 -0.1635  0.5309
  157SOL    HW1  471   2.186   0.349   1.119 -0.1690  0.1799  0.8238
  157SOL    HW2  472   2.341   0.393   1.142  0.2842 -0.5707 -0.7031
  158SOL     OW  473   1.065   1.699   0.745  0.3494 -0.3496 -0.1313
  158SOL    HW1  474   1.008   1.632   0.792 -1.0259  1.3406  0.6472
  158SOL    HW2  475   1.099   1.660   0.659 -3.6414 -0.6988 -1.6303
  159SOL     OW  476   1.761   1.422   0.142 -0.1354 -0.1396  0.1678
  159SOL    HW1  477   1.782   1.412   0.240  0.7898 -0.7077 -0.0871
  159SOL    HW2  478   1.840   1.393   0.088 -1.4238 -1.9496 -0.7945
  160SOL     OW  479   0.236   0.087   2.083 -0.1817 -0.1304 -0.3114
  160SOL    HW1  480   0.312   0.054   2.027  0.6328 -0.2669  0.8500
  160SOL    HW2  481   0.150   0.075   2.033  0.5150 -0.3229 -1.4886
  161SOL     OW  482   0.185   0.807   1.273  0.0246  0.5255 -0.7808
  161SOL    HW1  483   0.119   0.739   1.304  1.1243 -0.5092 -0.6627
  161SOL    HW2  484   0.138   0.893   1.252 -1.1290  0.2913  0.8085
  162SOL     OW  485   2.040   2.235   0.825  0.4366  0.5616  0.0840
  162SOL    HW1  486   2.073   2.281   0.743 -1.1303  0.4913 -0.6008
  162SOL    HW2  487   2.084   2.275   0.906  3.6477 -0.8125 -0.8785
  163SOL     OW  488   1.007   1.027   0.659 -0.1588 -0.8599 -0.1944
  163SOL    HW1  489   1.034   0.930   0.660  0.2662 -0.7405  0.5646
  163SOL    HW2  490   0.997   1.059   0.753 -1.5495 -0.5055 -0.4524
  164SOL     OW  491   2.061   2.290   2.083 -0.0264  0.1166  0.0117
  164SOL    HW1  492   2.136   2.233   2.117  0.1442 -0.4620 -1.3158
  164SOL    HW2  493   2.061   2.290   1.983  0.2962  2.8350 -0.0496
  165SOL     OW  494   2.033   1.550   2.137  0.5685  0.1189  0.3509
  165SOL    HW1  495   2.117   1.590   2.101 -0.1953  1.1636 -0.2846
  165SOL    HW2  496   1.954   1.604   2.107 -0.4502 -1.5970 -0.1445
  166SOL     OW  497   2.340   0.093   1.948 -0.2342 -0.4579 -0.1124
  166SOL    HW1  498   2.284   0.112   2.029  0.2119 -0.4642  0.1953
  166SOL    HW2  499   2.318   0.161   1.877 -0.8806 -0.6679 -0.1180
  167SOL     OW  500   0.382   0.587   1.481 -0.7774  0.4869  0.2633
  167SOL    HW1  501   0.321   0.659   1.448 -0.2817  0.5393 -0.5823
  167SOL    HW2  502   0.350   0.498   1.449 -1.5411  0.2965  1.5373
  168SOL     OW  503   0.827   1.473   1.341 -0.0238 -0.2388 -0.7855
  168SOL    HW1  504   0.856   1.550   1.397 -2.0731  1.2748 -1.7553
  168SOL    HW2  505   0.789   1.401   1.400 -0.5770  0.6134 -0.0987
  169SOL     OW  506   1.159   1.654   0.504 -0.4370  0.0029  0.5109
  169SOL    HW1  507   1.172   1.611   0.414  1.2254 -2.3473  1.8036
  169SOL    HW2  508   1.220   1.733   0.512  1.4854 -1.4317  0.5436
  170SOL     OW  509   0.984   1.647   1.475 -0.4465  0.4226 -0.2065
  170SOL    HW1  510   1.049   1.652   1.399 -0.4433  1.3895 -0.1506
  170SOL    HW2  511   0.969   1.739   1.512 -1.5024  0.1468  0.0766
  171SOL     OW  512   2.221   0.046   1.533  0.6017 -0.1513  0.3294
  171SOL    HW1  513   2.307   0.069   1.486  1.1978 -0.0452  1.4448
  171SOL    HW2  514   2.150   0.111   1.508  0.4629 -1.0148 -1.6475
  172SOL     OW  515   1.785   0.307   1.563  0.0133  0.1976  0.3316
  172SOL    HW1  516   1.884   0.294   1.569  0.0269  0.8094  1.6755
  172SOL    HW2  517   1.740   0.266   1.642 -0.4296  3.1680  1.7191
  173SOL     OW  518   0.074   0.497   1.665 -0.5948 -0.5222  0.2684
  173SOL    HW1  519   0.096   0.494   1.568 -1.2393  2.6868 -0.0200
  173SOL    HW2  520   0.038   0.587   1.689  0.0022 -1.0946  3.6012
  174SOL     OW  521   0.917   2.228   1.921 -0.3150 -0.5853 -0.4477
  174SOL    HW1  522   0.887   2.186   2.007  0.0056  1.2005  0.5672
  174SOL    HW2  523   0.885   2.323   1.918  0.3587 -0.3926 -1.9498
  175SOL     OW  524   1.021   0.259   1.220  0.0730  1.0656  0.2243
  175SOL    HW1  525   1.011   0.186   1.153 -1.1634  1.0466  0.4122
  175SOL    HW2  526   0.973   0.341   1.187  0.3056  1.3654  0.6280
  176SOL     OW  527   0.803   0.187   0.766 -0.4144  0.1455 -0.2942
  176SOL    HW1  528   0.885   0.140   0.798 -0.3788 -0.9534 -1.9781
  176SOL    HW2  529   0.801   0.188   0.666 -1.9919  0.9702 -0.2748
  177SOL     OW  530   2.346   0.994   2.017 -0.2096 -0.6156  0.0941
  177SOL    HW1  531   2.379   1.088   2.027  1.9223 -1.4358  1.0329
  177SOL    HW2  532   2.344   0.970   1.920  0.4821 -0.0390 -0.0704
  178SOL     OW  533   1.730   2.067   2.095 -0.2072  0.3425  0.2029
  178SOL    HW1  534   1.726   2.036   2.190  0.1815  0.8554  0.3848
  178SOL    HW2  535   1.652   2.127   2.077 -0.4851 -0.0516  0.0938
  179SOL     OW  536   0.543   1.102   2.160  0.0021 -0.4303 -0.1201
  179SOL    HW1  537   0.505   1.162   2.231  1.1262 -0.1230  0.2357
  179SOL    HW2  538   0.516   1.007   2.178 -1.2883 -0.1110 -0.3522
  180SOL     OW  539   2.289   1.630   0.840  0.2090  0.4865 -0.2210
  180SOL    HW1  540   2.368   1.647   0.781 -0.0055  1.0536 -0.3456
  180SOL    HW2  541   2.238   1.551   0.806 -0.9552  1.9171 -1.8735
  181SOL     OW  542   1.498   0.783   2.020  0.1614 -0.2351  0.1321
  181SOL    HW1  543   1.405   0.783   2.058  0.3703  3.2128  0.8258
  181SOL    HW2  544   1.503   0.851   1.947  1.1660 -3.1383 -2.6232
  182SOL     OW  545   2.281   1.899   2.187 -0.7622 -0.1948  0.4569
  182SOL    HW1  546   2.372   1.920   2.222 -0.9222  0.8634  0.2673
  182SOL    HW2  547   2.286   1.823   2.123 -0.1449 -0.7130  1.1115
  183SOL     OW  548   0.254   1.135   0.326 -0.4772  0.3116 -0.3047
  183SOL    HW1  549   0.170   1.081   0.324 -0.3029  0.0337 -0.0843
  183SOL    HW2  550   0.272   1.164   0.420 -1.5502  2.2803 -0.6679
  184SOL     OW  551   0.350   1.169   1.969  0.2395 -0.4413  1.0836
  184SOL    HW1  552   0.256   1.140   1.990 -0.1522  0.3491  0.4618
  184SOL    HW2  553   0.407   1.160   2.050 -0.6589  0.1918  1.7958
  185SOL     OW  554   0.105   0.619   0.238 -0.1146  0.8595 -0.1798
  185SOL    HW1  555   0.178   0.686   0.227  0.6826  0.7989  3.8903
  185SOL    HW2  556   0.059   0.635   0.325  0.6374 -4.3765  1.3196
  186SOL     OW  557   0.688   1.354   0.973  0.3116 -0.5051 -0.3841
  186SOL    HW1  558   0.720   1.430   1.030  0.0009  0.3871 -1.3951
  186SOL    HW2  559   0.709   1.267   1.019 -0.2134  0.2051  1.2347
  187SOL     OW  560   0.825   2.010   1.292  0.1594 -0.1301  0.1463
  187SOL    HW1  561   0.907   2.059   1.321  0.7169 -0.5680 -0.6800
  187SOL    HW2  562   0.840   1.970   1.202 -0.6229 -1.0362  0.4157
  188SOL     OW  563   0.283   0.437   2.107 -0.0775 -0.1463 -0.5467
  188SOL    HW1  564   0.197   0.403   2.145 -0.5571  0.7955 -0.7502
  188SOL    HW2  565   0.330   0.493   2.175  0.0808 -0.1779 -0.6307
  189SOL     OW  566   1.782   1.644   2.044  0.0228  0.0788 -0.3594
  189SOL    HW1  567   1.746   1.558   2.008 -0.3009  0.2309 -0.4001
  189SOL    HW2  568   1.839   1.688   1.974  2.6843 -1.5584  0.6777
  190SOL     OW  569   1.244   1.910   1.624 -0.3053 -0.4091 -0.0565
  190SOL    HW1  570   1.277   1.965   1.701 -0.2544  0.4106 -0.6558
  190SOL    HW2  571   1.295   1.935   1.541 -2.0749  0.5181 -0.8890
  191SOL     OW  572   0.827   1.489   0.110 -0.0951  0.2009 -0.3150
  191SOL    HW1  573   0.880   1.497   0.194 -2.3731  0.1103  1.1823
  191SOL    HW2  574   0.857   1.408   0.059  4.3215  2.6648 -1.8749
  192SOL     OW  575   1.603   2.044   1.646 -0.1379  0.5204 -0.3751
  192SOL    HW1  576   1.514   2.065   1.686 -0.0027  2.0679 -0.8404
  192SOL    HW2  577   1.628   1.950   1.667 -1.6376  0.2415  0.2171
  193SOL     OW  578   0.086   1.037   1.206  0.1080 -0.2020  0.1436
  193SOL    HW1  579   0.163   1.088   1.166  0.9545 -0.0007  1.9646
  193SOL    HW2  580   0.014   1.102   1.232 -0.0378 -0.2361 -0.1721
  194SOL     OW  581   1.611   0.417   1.394 -0.8323 -0.3420 -0.3172
  194SOL    HW1  582   1.551   0.344   1.360  0.3824 -0.9448 -1.1983
  194SOL    HW2  583   1.682   0.377   1.452  0.9318 -0.1087 -2.2674
  195SOL     OW  584   1.075   1.997   1.909  0.2998  0.1806 -0.0106
  195SOL    HW1  585   1.032   2.087   1.904  0.7582  0.5503  2.0114
  195SOL    HW2  586   1.008   1.927   1.885 -1.1778  0.8151  2.0738
  196SOL     OW  587   1.722   1.794   1.693 -0.2372  0.0429  0.3911
  196SOL    HW1  588   1.635   1.789   1.743 -0.6527  0.2977 -0.2995
  196SOL    HW2  589   1.712   1.745   1.606 -0.7766  3.0166 -1.2842
  197SOL     OW  590   1.797   1.948   2.353  0.5502 -0.4043 -0.0431
  197SOL    HW1  591   1.788   1.849   2.365  1.5426 -0.1030  3.9424
  197SOL    HW2  592   1.894   1.972   2.349  0.3518  0.5599  0.7666
  198SOL     OW  593   0.428   0.154   0.212  0.2812 -0.1386 -0.4927
  198SOL    HW1  594   0.373   0.153   0.129  1.2096 -1.9398 -1.1179
  198SOL    HW2  595   0.457   0.061   0.234  2.1144  0.6291  0.4614
  199SOL     OW  596   2.203   0.432   0.052  0.4000  0.0385  0.1346
  199SOL    HW1  597   2.197   0.373   0.133 -1.5815  1.7941  1.3481
  199SOL    HW2  598   2.218   0.377  -0.029  0.9356 -1.9105  1.5299
  200SOL     OW  599   0.834   0.317   1.574  0.0579 -0.6817  0.2250
  200SOL    HW1  600   0.774   0.246   1.612  0.4402 -0.9946  0.2509
  200SOL    HW2  601   0.779   0.384   1.525 -0.3429 -0.8108  0.4947
  201SOL     OW  602   1.392   1.575   1.484  0.1964 -0.5769  0.1545
  201SOL    HW1  603   1.305   1.602   1.442  0.2961 -0.5902 -0.0590
  201SOL    HW2  604   1.375   1.539   1.576 -0.0419 -0.7349  0.0491
  202SOL     OW  605   2.310   0.953   1.506 -0.1419 -0.1035  0.2762
  202SOL    HW1  606   2.256   1.037   1.499 -1.8556 -1.1681  0.3796
  202SOL    HW2  607   2.376   0.950   1.431 -1.4020  0.4301 -0.8874
  203SOL     OW  608   2.134   2.293   0.341  0.5346  0.0402 -0.4267
  203SOL    HW1  609   2.088   2.380   0.361  1.3314  0.2618  0.4919
  203SOL    HW2  610   2.066   2.221   0.328 -0.0560  0.1802  1.7462
  204SOL     OW  611   1.344   0.047   1.904  0.1763  0.3387  0.3101
  204SOL    HW1  612   1.259   0.100   1.899  0.6648  1.2181  1.1539
  204SOL    HW2  613   1.370   0.016   1.813 -0.0116  1.7247 -0.2191
  205SOL     OW  614   1.123   2.056   2.189 -0.5845  0.5773  0.1168
  205SOL    HW1  615   1.103   2.041   2.092 -1.7430 -3.0080  0.8139
  205SOL    HW2  616   1.037   2.075   2.237 -0.0092  2.3773  0.4428
  206SOL     OW  617   0.388   0.550   0.029 -0.4321  0.5115 -0.4787
  206SOL    HW1  618   0.365   0.647   0.022 -1.9798  0.0630 -1.9512
  206SOL    HW2  619   0.415   0.529   0.123 -1.1208  2.1437  0.1107
  207SOL     OW  620   0.284   0.041   1.150  0.0099 -0.5882  0.8171
  207SOL    HW1  621   0.274  -0.057   1.164  1.5199 -0.7620  0.8054
  207SOL    HW2  622   0.274   0.063   1.053  0.1789 -0.7965  0.7530
  208SOL     OW  623   0.678   0.672   2.279 -0.1614 -0.3752 -0.6838
  208SOL    HW1  624   0.702   0.604   2.209 -0.9093 -1.6232  0.2696
  208SOL    HW2  625   0.687   0.631   2.370 -2.6757  0.1577 -0.1781
  209SOL     OW  626   0.485   0.256   2.077 -0.2832 -0.3772 -0.0795
  209SOL    HW1  627   0.409   0.315   2.104  0.8993  0.8395  0.6488
  209SOL    HW2  628   0.464   0.161   2.101 -2.4357 -0.3718 -1.7727
  210SOL     OW  629   1.761   0.478   1.914 -0.0210  0.0408  0.2525
  210SOL    HW1  630   1.663   0.470   1.899  0.2634  2.3188 -3.4720
  210SOL    HW2  631   1.782   0.566   1.956  0.5458  0.3844 -0.7137
  211SOL     OW  632   0.018   0.965   0.850  0.0550  0.2808  0.3317
  211SOL    HW1  633   0.093   0.918   0.803 -0.2999 -1.6219  1.6177
  211SOL    HW2  634   0.038   1.063   0.854  0.8763  0.2708 -2.2761
  212SOL     OW  635   0.597   1.936   0.730  0.0031  0.6193  0.2604
  212SOL    HW1  636   0.618   1.838   0.730  0.9528  0.8067 -0.1620
  212SOL    HW2  637   0.524   1.955   0.665 -0.7519  0.0786  0.9535
  213SOL     OW  638   0.476   1.629   1.440  0.4468 -0.2305  0.2720
  213SOL    HW1  639   0.389   1.584   1.455 -0.2747  0.6928 -1.0226
  213SOL    HW2  640   0.508   1.671   1.525  0.4583 -1.9863  1.1397
  214SOL     OW  641   1.092   1.816   2.313  0.0615  0.0878  0.0520
  214SOL    HW1  642   1.143   1.784   2.393  0.6728 -1.2859 -0.8583
  214SOL    HW2  643   1.142   1.891   2.269  0.4958 -0.1890  0.0762
  215SOL     OW  644   0.023   0.620   1.341 -0.2817  0.3787  0.2512
  215SOL    HW1  645  -0.059   0.618   1.399 -0.4245 -0.7786  0.0181
  215SOL    HW2  646   0.011   0.555   1.265  1.0248 -0.1074  0.4586
  216SOL     OW  647   0.107   1.613   0.430  0.5712 -0.9100 -0.5013
  216SOL    HW1  648   0.044   1.550   0.384  1.0543 -2.2033  0.5850
  216SOL    HW2  649   0.201   1.592   0.402  0.6552  0.0164 -0.9335
  217SOL     OW  650   2.102   0.239   2.153  0.5454 -0.0909 -0.0607
  217SOL    HW1  651   2.078   0.182   2.231  0.3994  0.6320  0.4306
  217SOL    HW2  652   2.020   0.258   2.099  0.8456 -1.5649 -1.0597
  218SOL     OW  653   1.024   1.158   1.453  0.2967  0.8825  0.3537
  218SOL    HW1  654   0.962   1.165   1.531 -0.8970  0.0572 -0.4957
  218SOL    HW2  655   1.036   1.061   1.430  1.2270  1.0897 -0.0216
  219SOL     OW  656   1.365   1.843   0.553  0.0586  0.5627  0.3397
  219SOL    HW1  657   1.407   1.927   0.588  0.5873  0.5911 -0.3253
  219SOL    HW2  658   1.415   1.763   0.588  0.8711  0.6057 -0.6773
  220SOL     OW  659   0.242   0.363   1.385  0.1802 -0.1518 -0.2080
  220SOL    HW1  660   0.208   0.413   1.306  0.1478  0.0090 -0.0921
  220SOL    HW2  661   0.334   0.328   1.365  0.4911  0.5670 -0.0229
  221SOL     OW  662   1.334   2.202   0.448  0.4699  0.0113 -0.2652
  221SOL    HW1  663   1.377   2.290   0.469 -1.1034  0.7022  0.0969
  221SOL    HW2  664   1.302   2.203   0.354  1.6913 -0.7024 -0.7037
  222SOL     OW  665   0.778   1.217   2.085 -0.5165 -0.5585 -0.4989
  222SOL    HW1  666   0.681   1.202   2.106 -0.2009  0.2493  1.5992
  222SOL    HW2  667   0.785   1.288   2.015 -1.4280 -0.4046 -0.4498
  223SOL     OW  668   0.632   1.671   0.758  0.3291 -0.4207  0.2765
  223SOL    HW1  669   0.582   1.587   0.777 -0.7793  0.1324 -0.2159
  223SOL    HW2  670   0.679   1.701   0.842  0.7738 -1.5417  0.4407
  224SOL     OW  671   0.334   0.596   1.131  0.6645  0.3905 -0.1505
  224SOL    HW1  672   0.427   0.616   1.102  0.1755  1.8646 -0.8020
  224SOL    HW2  673   0.299   0.673   1.185 -0.7668  0.6925 -1.4520
  225SOL     OW  674   0.312   0.788   0.199 -0.3414  0.4626 -0.2287
  225SOL    HW1  675   0.393   0.764   0.253  0.1588 -1.4788 -1.8005
  225SOL    HW2  676   0.313   0.886   0.180  1.6137  0.4688 -0.1893
  226SOL     OW  677   2.285   2.164   2.109  0.4742 -0.8865  0.8606
  226SOL    HW1  678   2.288   2.072   2.146  2.1705 -0.8516  0.8453
  226SOL    HW2  679   2.355   2.174   2.038  0.9666  0.6882  1.5383
  227SOL     OW  680   1.066   0.772   0.731 -0.0722 -0.4840 -1.1046
  227SOL    HW1  681   1.016   0.686   0.717  2.4930 -2.0070 -1.2701
  227SOL    HW2  682   1.152   0.769   0.680  1.1014  1.2334  0.7063
  228SOL     OW  683   0.368   1.255   1.352  0.1911 -0.1315  0.0273
  228SOL    HW1  684   0.346   1.319   1.425  1.7485 -0.0660  0.4622
  228SOL    HW2  685   0.389   1.166   1.391  0.7775 -0.1673 -0.3610
  229SOL     OW  686   0.585   0.484   0.674 -0.0238  0.0952  0.5862
  229SOL    HW1  687   0.578   0.430   0.757 -0.3743 -1.0443 -0.1699
  229SOL    HW2  688   0.609   0.424   0.597 -0.6506  0.9684 -0.3061
  230SOL     OW  689   0.151   0.368   0.073 -0.2768  0.0417 -0.0515
  230SOL    HW1  690   0.062   0.413   0.081 -0.5602 -0.4445 -0.4698
  230SOL    HW2  691   0.224   0.436   0.085 -0.6918  0.1614  1.9372
  231SOL     OW  692   0.897   0.442   2.160  0.3150  0.0891  0.3772
  231SOL    HW1  693   0.966   0.498   2.114 -0.3052 -0.2341 -0.9650
  231SOL    HW2  694   0.811   0.447   2.110 -0.3368 -0.3893  1.4284
  232SOL     OW  695   1.952   2.109   0.234  0.0252 -0.0833 -0.2151
  232SOL    HW1  696   1.860   2.129   0.265  0.1740  1.4145 -0.6795
  232SOL    HW2  697   1.970   2.158   0.148  1.5358  0.3227  0.3154
  233SOL     OW  698   0.283   1.689   1.118  0.4782 -0.3399 -0.0522
  233SOL    HW1  699   0.213   1.746   1.161  0.2984 -0.8721  0.3738
  233SOL    HW2  700   0.353   1.747   1.076 -0.5451  0.2056 -1.0240
  234SOL     OW  701   0.884   1.238   1.208  0.0938  0.0346 -0.6338
  234SOL    HW1  702   0.904   1.217   1.304  1.0699  0.8909 -0.6299
  234SOL    HW2  703   0.864   1.336   1.199  0.9309  0.1407 -1.4441
  235SOL     OW  704   0.068   1.459   2.227 -0.0526  0.1082  0.1526
  235SOL    HW1  705   0.092   1.377   2.279  0.1703  0.4209  0.5407
  235SOL    HW2  706   0.093   1.540   2.279  1.8122  0.4248 -1.1939
  236SOL     OW  707   1.742   0.830   0.301 -0.6682  0.5955  0.3828
  236SOL    HW1  708   1.716   0.925   0.282 -1.0972  0.1340 -1.5042
  236SOL    HW2  709   1.841   0.820   0.286 -0.3763  1.0590  1.9680
  237SOL     OW  710   0.251   1.434   0.098 -0.0552 -0.3981 -0.1633
  237SOL    HW1  711   0.312   1.447   0.176 -0.5158  2.5391 -0.2528
  237SOL    HW2  712   0.189   1.357   0.117 -0.5989  0.6900  2.6793
  238SOL     OW  713   2.223   0.787   2.124  0.2638 -0.5981 -0.3896
  238SOL    HW1  714   2.258   0.874   2.089 -1.5095  0.4227  0.2583
  238SOL    HW2  715   2.279   0.756   2.200  0.6987  0.1695 -0.3946
  239SOL     OW  716   0.078   1.852   1.209 -0.5201 -0.6253  0.0112
  239SOL    HW1  717   0.042   1.922   1.271  0.2857 -0.5117  0.3573
  239SOL    HW2  718   0.054   1.876   1.115  1.0631  0.9512 -0.0320
  240SOL     OW  719   1.795   2.101   0.990 -0.2184  0.0489 -0.1548
  240SOL    HW1  720   1.707   2.054   0.984 -0.3700  0.2282  0.5878
  240SOL    HW2  721   1.860   2.058   0.928 -0.3667 -1.1192  0.4962
  241SOL     OW  722   0.410   0.782   1.874  0.2942  0.3985  0.8512
  241SOL    HW1  723   0.362   0.719   1.934 -0.8696 -0.3940 -0.8648
  241SOL    HW2  724   0.482   0.734   1.825  0.1549  0.6503  0.3894
  242SOL     OW  725   1.463   1.460   0.099  0.5675  0.3472 -0.2790
  242SOL    HW1  726   1.562   1.458   0.108  0.5795  0.6205 -0.3461
  242SOL    HW2  727   1.433   1.386   0.039  0.7574  0.4534 -0.5044
  243SOL     OW  728   1.727   0.780   1.014  0.4731 -0.7980 -0.2083
  243SOL    HW1  729   1.694   0.704   1.069 -0.5351 -0.6589 -0.6017
  243SOL    HW2  730   1.713   0.866   1.064 -2.9857 -0.3929 -1.7371
  244SOL     OW  731   0.716   1.757   1.012 -0.3358 -0.4142 -0.5451
  244SOL    HW1  732   0.800   1.799   1.048 -0.5486  0.3939 -0.9854
  244SOL    HW2  733   0.688   1.682   1.073 -0.3727  0.5723  0.6897
  245SOL     OW  734   0.066   1.677   0.057 -0.7452  0.9297  0.5663
  245SOL    HW1  735   0.143   1.653   0.116 -0.8245  0.7782  0.6062
  245SOL    HW2  736   0.039   1.772   0.076 -0.2422  1.1497  0.1956
  246SOL     OW  737   0.412   2.189   2.263  0.0978  0.1526  0.4197
  246SOL    HW1  738   0.315   2.204   2.280  0.2568  1.1842  0.4522
  246SOL    HW2  739   0.438   2.230   2.176  0.7882  1.0865  1.0497
  247SOL     OW  740   1.399   2.310   1.668  0.0084 -0.1055  0.0980
  247SOL    HW1  741   1.476   2.295   1.606 -0.6317  0.3904 -0.8364
  247SOL    HW2  742   1.314   2.309   1.615 -0.6492 -0.9239  1.1537
  248SOL     OW  743   0.084   2.341   0.688  0.1184 -0.1222 -0.7187
  248SOL    HW1  744   0.038   2.424   0.722 -0.9088 -0.4778 -1.2242
  248SOL    HW2  745   0.088   2.273   0.762 -1.0222 -0.4410 -0.9439
  249SOL     OW  746   0.260   1.033   2.350  0.4628  0.2168  0.1125
  249SOL    HW1  747   0.293   0.955   2.297  0.2901  0.3385 -0.1746
  249SOL    HW2  748   0.338   1.082   2.389  0.5282 -0.6958  1.1501
  250SOL     OW  749   0.595   2.308   0.299 -0.1080 -0.2782  0.1110
  250SOL    HW1  750   0.689   2.327   0.326  0.3807 -0.8054 -1.1555
  250SOL    HW2  751   0.595   2.247   0.220 -1.5283 -0.8299  0.5165
  251SOL     OW  752   0.020   0.710   0.498 -0.2054  0.4332  0.0138
  251SOL    HW1  753   0.050   0.756   0.581 -0.6246  0.6290  0.0593
  251SOL    HW2  754  -0.050   0.643   0.521  2.2748 -2.1268  0.3062
  252SOL     OW  755   2.158   0.526   0.667  0.9110 -0.5597  1.0765
  252SOL    HW1  756   2.185   0.593   0.736 -0.1803  0.8886  0.1185
  252SOL    HW2  757   2.075   0.480   0.697  0.2509  0.3030  0.5932
  253SOL     OW  758   1.424   0.217   0.925  0.3436 -0.2969 -0.3812
  253SOL    HW1  759   1.394   0.122   0.932  1.4563 -0.7952 -2.0508
  253SOL    HW2  760   1.358   0.276   0.970  0.1477 -1.9540  1.5545
  254SOL     OW  761   0.368   2.135   1.789  0.1912  0.3615  0.0787
  254SOL    HW1  762   0.279   2.149   1.834 -0.0047 -1.0664  0.1454
  254SOL    HW2  763   0.363   2.172   1.696 -0.9534 -1.0096 -0.4256
  255SOL     OW  764   1.789   1.475   1.695  0.0396 -0.5485  0.6208
  255SOL    HW1  765   1.761   1.480   1.599 -0.0101 -1.3152  0.5871
  255SOL    HW2  766   1.871   1.529   1.709  0.0572 -0.4468  0.1401
  256SOL     OW  767   2.053   0.233   1.429 -0.6209 -0.5737 -0.4739
  256SOL    HW1  768   1.989   0.253   1.355 -1.3891 -0.0652  0.3172
  256SOL    HW2  769   2.085   0.319   1.469  0.1290 -0.8377 -0.5003
  257SOL     OW  770   0.827   0.638   0.631  0.3526 -0.1888  0.1570
  257SOL    HW1  771   0.810   0.736   0.643  1.3674 -0.0137  0.1474
  257SOL    HW2  772   0.740   0.592   0.612 -0.0550  0.7870 -0.3880
  258SOL     OW  773   2.293   1.637   2.071  0.1118 -0.3905 -0.0995
  258SOL    HW1  774   2.361   1.669   2.005  0.7738  0.1659  0.8318
  258SOL    HW2  775   2.340   1.588   2.145 -0.5827 -0.6415  0.1724
  259SOL     OW  776   1.594   0.277   0.401 -0.0026  0.0776  0.0175
  259SOL    HW1  777   1.680   0.323   0.379 -2.1012  3.6160 -1.1412
  259SOL    HW2  778   1.544   0.257   0.317 -1.1548 -0.2398  0.7657
  260SOL     OW  779   1.965   0.773   2.258 -0.0643  0.1247  0.9117
  260SOL    HW1  780   2.056   0.785   2.217  0.3186  3.2729  2.5630
  260SOL    HW2  781   1.972   0.713   2.337  0.5789  0.3030  0.9961
  261SOL     OW  782   1.824   1.026   1.204  0.1299 -0.2638 -0.0431
  261SOL    HW1  783   1.908   1.037   1.150  0.6409 -0.2835  0.7350
  261SOL    HW2  784   1.847   1.026   1.302 -0.8103  0.0116  0.1836
  262SOL     OW  785   2.212   2.298   1.024 -0.0172 -0.2664  0.2406
  262SOL    HW1  786   2.176   2.241   1.098  0.5100  0.7522  1.2977
  262SOL    HW2  787   2.296   2.257   0.988  0.3613 -0.1585  0.9971
  263SOL     OW  788   0.491   0.067   1.564  0.1522  0.2715  0.2332
  263SOL    HW1  789   0.470   0.120   1.482 -1.4971 -0.1716  0.3550
  263SOL    HW2  790   0.421   0.085   1.634  0.6852 -0.5414  0.9780
  264SOL     OW  791   1.230   0.840   1.757 -0.4027 -1.0112 -0.3757
  264SOL    HW1  792   1.130   0.848   1.762 -0.3692  1.0163 -2.2928
  264SOL    HW2  793   1.255   0.744   1.749 -2.1404 -1.6054  0.8401
  265SOL     OW  794   1.395   1.227   2.268  0.2221 -0.3772 -0.3467
  265SOL    HW1  795   1.326   1.163   2.235  1.8717 -1.9931 -0.7202
  265SOL    HW2  796   1.464   1.242   2.197  1.3683 -0.3771  0.7448
  266SOL     OW  797   0.116   0.135   0.312  0.2835  1.0388 -0.1038
  266SOL    HW1  798   0.179   0.189   0.256  1.4411 -0.4602 -0.2926
  266SOL    HW2  799   0.066   0.071   0.254  1.1747 -0.2260  0.5140
  267SOL     OW  800   1.817   0.003   1.136  0.3761  0.0671  0.2916
  267SOL    HW1  801   1.889  -0.039   1.191 -1.0430 -1.0099  1.3529
  267SOL    HW2  802   1.788  -0.060   1.065 -0.3162  0.0604  0.5803
  268SOL     OW  803   1.509   0.994   1.197 -0.4978  0.3233 -0.0913
  268SOL    HW1  804   1.516   0.938   1.280  0.4715  1.5782  0.6941
  268SOL    HW2  805   1.421   0.978   1.153 -0.7536 -0.8473  0.8192
  269SOL     OW  806   1.036   0.439   1.776  0.6135 -0.2260  0.2412
  269SOL    HW1  807   0.963   0.487   1.728  0.7019  0.0765  0.4062
  269SOL    HW2  808   1.033   0.342   1.754  0.5411 -0.1157 -0.2285
  270SOL     OW  809   2.250   0.213   0.688  0.1418 -0.4427  0.3415
  270SOL    HW1  810   2.331   0.249   0.643  0.5042 -1.8932 -0.2001
  270SOL    HW2  811   2.173   0.276   0.673  0.5606 -0.2906 -1.2513
  271SOL     OW  812   0.161   0.353   1.107 -0.0225 -0.1038 -0.6478
  271SOL    HW1  813   0.231   0.424   1.113 -1.4678  1.2910  0.2773
  271SOL    HW2  814   0.150   0.325   1.011  1.7830 -0.3626 -0.8013
  272SOL     OW  815   1.759   0.067   0.180 -0.1326  0.3042 -0.1709
  272SOL    HW1  816   1.737  -0.010   0.241  0.9145 -0.1652 -0.3730
  272SOL    HW2  817   1.685   0.133   0.183 -1.1236 -0.7903 -0.1142
  273SOL     OW  818   1.864   1.246   0.622  0.6059  0.6433  0.1435
  273SOL    HW1  819   1.840   1.206   0.711  1.3892 -1.2813 -0.4995
  273SOL    HW2  820   1.937   1.193   0.579  1.3763  2.5160 -0.9434
  274SOL     OW  821   1.860   0.167   0.646  0.2218  0.2683 -0.2247
  274SOL    HW1  822   1.897   0.075   0.640  0.8285  0.5440 -0.7188
  274SOL    HW2  823   1.797   0.173   0.723  2.4857  0.2493  1.6674
  275SOL     OW  824   0.434   1.582   2.106 -0.5507 -0.6804 -0.2037
  275SOL    HW1  825   0.525   1.601   2.068 -0.2437 -0.6770  0.5155
  275SOL    HW2  826   0.372   1.657   2.083 -0.1937 -0.3607 -0.1281
  276SOL     OW  827   0.068   2.181   0.939  0.5354  0.3111  0.1558
  276SOL    HW1  828   0.032   2.090   0.920  1.4007  0.2598 -1.3420
  276SOL    HW2  829   0.159   2.174   0.979  0.6214  0.5178 -0.0007
  277SOL     OW  830   0.203   0.859   0.658  0.1028  0.0924  0.1701
  277SOL    HW1  831   0.276   0.860   0.589 -1.1176 -1.1549 -1.1691
  277SOL    HW2  832   0.220   0.785   0.723 -0.4672 -0.8316 -0.7152
  278SOL     OW  833   1.702   1.147   2.020  0.2708 -0.4068  0.5892
  278SOL    HW1  834   1.651   1.228   1.990  1.2086 -0.2596 -0.6703
  278SOL    HW2  835   1.722   1.154   2.117 -2.6069 -0.7508  1.2395
  279SOL     OW  836   1.717   0.092   2.201  0.5570 -0.4132 -0.2355
  279SOL    HW1  837   1.770   0.140   2.131  1.0018 -2.5698 -1.4071
  279SOL    HW2  838   1.721   0.143   2.287 -0.8704  2.8548 -2.0110
  280SOL     OW  839   1.067   2.118   1.368 -0.5777 -0.1801  0.2382
  280SOL    HW1  840   1.154   2.070   1.373 -1.2021 -1.5366 -1.1380
  280SOL    HW2  841   1.068   2.197   1.428  1.7013 -0.0081  0.0046
  281SOL     OW  842   0.518   1.466   1.829  0.4796  1.0401 -0.4733
  281SOL    HW1  843   0.448   1.480   1.758  1.6957  0.1640 -1.8648
  281SOL    HW2  844   0.475   1.469   1.919 -1.3685  0.4063 -1.3198
  282SOL     OW  845   0.498   2.284   2.003  0.0309 -0.0936 -0.1250
  282SOL    HW1  846   0.469   2.240   1.918 -0.1136 -0.9369  0.3467
  282SOL    HW2  847   0.597   2.283   2.010  0.3404  4.2706 -2.5176
  283SOL     OW  848   1.767   0.684   0.729  0.0153 -0.3487  0.2659
  283SOL    HW1  849   1.804   0.591   0.733  0.3863 -0.1321  2.2132
  283SOL    HW2  850   1.752   0.719   0.822 -2.6080  0.5616 -0.4383
  284SOL     OW  851   1.475   1.804   1.780 -0.4641  0.2657 -0.6667
  284SOL    HW1  852   1.390   1.803   1.727 -0.4743  0.8644 -0.6669
  284SOL    HW2  853   1.466   1.741   1.857 -1.8163  2.0161  0.6803
  285SOL     OW  854   0.509   1.082   0.526  0.3065 -0.1416 -0.2310
  285SOL    HW1  855   0.503   1.178   0.551 -0.1494 -0.1196 -0.4300
  285SOL    HW2  856   0.540   1.074   0.431 -0.3948 -0.1730 -0.4610
  286SOL     OW  857   2.221   1.774   0.509  0.6686  0.0521  0.3435
  286SOL    HW1  858   2.191   1.817   0.425 -1.1610 -0.4032  0.7528
  286SOL    HW2  859   2.317   1.746   0.500  0.5935  0.3467 -1.4329
  287SOL     OW  860   1.926   1.970   1.325  0.1426  0.2317  0.7264
  287SOL    HW1  861   1.874   1.896   1.283  0.7753 -0.2802  0.8462
  287SOL    HW2  862   1.863   2.038   1.362 -0.4411 -0.5037  1.0845
  288SOL     OW  863   2.233   1.441   1.793  0.0405 -0.3880  0.8536
  288SOL    HW1  864   2.202   1.515   1.733  0.2808 -1.0689 -0.1169
  288SOL    HW2  865   2.197   1.456   1.885  0.4343  1.1726  0.7772
  289SOL     OW  866   2.106   1.401   1.221  0.2575 -0.0810  0.5577
  289SOL    HW1  867   2.006   1.409   1.215  0.2873 -0.4863 -0.8343
  289SOL    HW2  868   2.144   1.486   1.258 -0.4152  1.1812 -1.5210
  290SOL     OW  869   0.939   1.900   1.082 -0.2810 -0.2828  0.0430
  290SOL    HW1  870   0.972   1.929   0.992 -0.1979 -3.6841 -1.1248
  290SOL    HW2  871   1.010   1.846   1.127 -0.4189  1.1943  2.0991
  291SOL     OW  872   0.830   0.415   0.287  0.3515  0.1896  0.0347
  291SOL    HW1  873   0.758   0.382   0.348 -0.2601  1.4009 -0.0203
  291SOL    HW2  874   0.881   0.337   0.250 -1.9457 -0.7598 -1.2133
  292SOL     OW  875   2.281   1.437   0.393 -0.1728  0.3486 -0.3076
  292SOL    HW1  876   2.189   1.461   0.423 -0.6866  0.2966 -1.7863
  292SOL    HW2  877   2.326   1.383   0.463 -0.9788  1.0506  0.7635
  293SOL     OW  878   0.712   0.987   1.398 -0.1584  0.4121  0.4865
  293SOL    HW1  879   0.739   1.072   1.353 -1.0033  0.3381 -0.1787
  293SOL    HW2  880   0.613   0.976   1.392 -0.2637  0.2923  2.2123
  294SOL     OW  881   2.032   0.759   1.832 -0.3712  0.0065  0.1528
  294SOL    HW1  882   2.021   0.675   1.780 -0.3441 -0.1099  0.3353
  294SOL    HW2  883   1.954   0.772   1.892 -0.3206  0.0515  0.2090
  295SOL     OW  884   2.041   1.977   0.881  0.5771  0.1649 -0.5748
  295SOL    HW1  885   2.047   2.064   0.831 -0.8676 -0.3710 -1.7241
  295SOL    HW2  886   2.026   1.902   0.816  0.4599 -0.7707  0.5155
  296SOL     OW  887   0.809   1.992   2.079  0.3843  0.5241 -0.4523
  296SOL    HW1  888   0.786   1.964   1.986  1.0136 -0.1036 -0.4301
  296SOL    HW2  889   0.852   1.915   2.127 -1.1962  0.4074  0.8091
  297SOL     OW  890   0.565   1.430   0.195  0.5361 -0.0591  0.5629
  297SOL    HW1  891   0.536   1.350   0.141 -0.8388 -1.1065  2.7784
  297SOL    HW2  892   0.628   1.486   0.141 -0.5075 -1.2667 -1.9761
  298SOL     OW  893   0.967   1.489   0.333  0.0267  0.0200 -0.1122
  298SOL    HW1  894   0.984   1.418   0.401  1.1920  0.7342  0.3742
  298SOL    HW2  895   0.914   1.563   0.375  1.0287  0.6154  0.1531
  299SOL     OW  896   1.316   2.079   1.841 -0.1333 -0.0059  0.2203
  299SOL    HW1  897   1.228   2.039   1.866 -0.2958  1.1319  1.5161
  299SOL    HW2  898   1.307   2.178   1.835  0.5303 -0.0559 -1.8826
  300SOL     OW  899   0.666   1.360   0.438  0.1274 -0.2443 -0.2881
  300SOL    HW1  900   0.645   1.372   0.341  2.0817  0.3743 -0.6491
  300SOL    HW2  901   0.583   1.372   0.492 -0.5718  1.4987 -1.7156
  301SOL     OW  902   1.346   0.578   1.657  0.2648  0.2196  0.2298
  301SOL    HW1  903   1.326   0.576   1.559  0.9491 -1.3223  0.1092
  301SOL    HW2  904   1.368   0.486   1.689 -3.5559  0.0098  2.6227
  302SOL     OW  905   0.218   2.282   1.577 -0.1292  0.1821 -0.3918
  302SOL    HW1  906   0.198   2.359   1.517 -1.5198  1.2012  1.3273
  302SOL    HW2  907   0.239   2.201   1.522 -1.5979  1.0205 -2.2279
  303SOL     OW  908   1.087   0.120   0.436 -0.1159 -0.2119  0.2002
  303SOL    HW1  909   1.139   0.109   0.352 -1.7599  0.7149 -0.9586
  303SOL    HW2  910   1.148   0.149   0.509  1.0478  0.4962 -1.0427
  304SOL     OW  911   1.588   1.120   0.685  0.1046 -0.2333  0.0248
  304SOL    HW1  912   1.686   1.126   0.666  0.0283 -0.1716 -0.3461
  304SOL    HW2  913   1.541   1.198   0.644 -0.1090 -0.2895  0.1611
  305SOL     OW  914   0.639   0.486   2.036 -0.1208  0.2354  0.1614
  305SOL    HW1  915   0.586   0.409   2.073  0.7644 -0.8928 -0.8552
  305SOL    HW2  916   0.592   0.523   1.956 -0.0144  0.0683  0.0221
  306SOL     OW  917   0.277   1.202   1.083  0.0642  0.5982 -0.6030
  306SOL    HW1  918   0.209   1.269   1.053 -2.2809 -1.4334  0.0784
  306SOL    HW2  919   0.305   1.222   1.177 -1.9777 -0.3838  0.2420
  307SOL     OW  920   1.127   1.977   0.267  0.7514  0.1604  0.1755
  307SOL    HW1  921   1.204   1.914   0.277 -0.4289 -1.5717 -1.2544
  307SOL    HW2  922   1.042   1.925   0.266 -0.3083  1.8622 -0.3358
  308SOL     OW  923   0.300   0.155   2.331 -0.1236  0.1380 -0.3581
  308SOL    HW1  924   0.282   0.135   2.235  2.0393  1.8507 -1.1902
  308SOL    HW2  925   0.242   0.231   2.361  1.0476  1.3685 -1.1288
  309SOL     OW  926   0.863   1.676   2.274 -0.5223  0.3714  0.2593
  309SOL    HW1  927   0.921   1.749   2.311 -1.2155  0.7790  0.5452
  309SOL    HW2  928   0.831   1.618   2.349  0.0798 -0.2737  0.0262
  310SOL     OW  929   0.986   1.087   0.953  0.0240  0.2605  0.4563
  310SOL    HW1  930   1.057   1.149   0.921 -0.8468  1.4094  0.7129
  310SOL    HW2  931   0.962   1.108   1.047 -2.6622  1.8264 -0.4971
  311SOL     OW  932   1.801   0.724   2.016 -0.0320 -0.4486 -0.1657
  311SOL    HW1  933   1.852   0.745   2.099 -0.5934 -0.0546  0.0864
  311SOL    HW2  934   1.706   0.755   2.026  0.2042  0.7631 -1.4342
  312SOL     OW  935   0.576   0.318   0.874 -0.1093  0.4406  0.1210
  312SOL    HW1  936   0.642   0.243   0.864 -0.3864  0.1532  0.4267
  312SOL    HW2  937   0.594   0.368   0.958 -2.4164 -1.7921  2.0208
  313SOL     OW  938   2.104   2.087   1.164 -0.5036  0.8130  0.2728
  313SOL    HW1  939   2.056   2.046   1.242 -0.7946  0.8573  0.1170
  313SOL    HW2  940   2.091   2.030   1.083  0.1503  0.5396  0.3491
  314SOL     OW  941   0.489   1.122   0.132  0.0444 -0.4568 -0.0246
  314SOL    HW1  942   0.576   1.111   0.180 -0.4601  0.9214  1.2703
  314SOL    HW2  943   0.418   1.148   0.198 -1.4778 -2.1017 -0.9711
  315SOL     OW  944   1.391   1.013   0.295 -0.0343 -0.0254  0.1665
  315SOL    HW1  945   1.390   0.954   0.376 -1.7763 -0.4967 -0.1824
  315SOL    HW2  946   1.386   0.956   0.212 -1.6971  0.5973 -0.1710
  316SOL     OW  947   1.685   0.242   0.850  0.5396  0.0962 -0.3973
  316SOL    HW1  948   1.760   0.263   0.913  1.0638 -0.2724 -0.8924
  316SOL    HW2  949   1.598   0.250   0.898  0.9848 -1.2390  0.6554
  317SOL     OW  950   1.260   1.410   1.971 -0.0590  0.1526 -0.0825
  317SOL    HW1  951   1.184   1.416   2.036 -0.8946 -2.1163 -0.7911
  317SOL    HW2  952   1.243   1.335   1.907  1.7716  0.9887 -1.5961
  318SOL     OW  953   1.097   1.434   0.837  0.4788  0.5928 -0.2964
  318SOL    HW1  954   1.156   1.433   0.756  1.2150 -0.8860  0.2374
  318SOL    HW2  955   1.143   1.387   0.913  0.1622  2.6698  1.2557
  319SOL     OW  956   0.849   0.127   1.910 -0.1400 -0.0361  0.0540
  319SOL    HW1  957   0.774   0.146   1.847  1.1783 -1.0890 -1.8794
  319SOL    HW2  958   0.820   0.146   2.004 -2.6737 -0.0351 -0.7075
  320SOL     OW  959   0.508   2.314   0.675 -0.1376 -0.6441 -0.3575
  320SOL    HW1  960   0.606   2.296   0.666 -0.3928 -2.9544  1.0166
  320SOL    HW2  961   0.458   2.256   0.611 -0.7433 -1.6378  0.9904
  321SOL     OW  962   1.981   2.306   0.030 -0.1297  0.8551 -0.6047
  321SOL    HW1  963   1.914   2.364   0.077 -0.8788 -0.5004  0.0520
  321SOL    HW2  964   1.970   2.316  -0.068  0.6625  2.8429 -0.5143
  322SOL     OW  965   1.744   1.417   0.433  0.2536 -0.1029  0.0419
  322SOL    HW1  966   1.800   1.377   0.506  2.6232 -0.0136 -1.6825
  322SOL    HW2  967   1.653   1.374   0.434  1.4271 -2.6676  0.7687
  323SOL     OW  968   2.104   0.689   1.092  0.6553 -0.2187  0.9184
  323SOL    HW1  969   2.039   0.714   1.164 -0.3115  0.7086 -0.2527
  323SOL    HW2  970   2.143   0.599   1.112  0.0286 -0.1969  2.3331
  324SOL     OW  971   1.143   0.008   1.504  0.9075  0.4883  0.2471
  324SOL    HW1  972   1.056  -0.025   1.540  1.2635 -2.7355 -1.6841
  324SOL    HW2  973   1.124   0.081   1.437 -0.2526  0.2600  0.3051
  325SOL     OW  974   2.042   1.072   1.020 -0.5435  0.6247 -0.0330
  325SOL    HW1  975   2.047   0.988   0.965  2.1646 -0.5582  1.8995
  325SOL    HW2  976   2.123   1.129   1.000 -2.0065  2.4960 -0.8161
  326SOL     OW  977   1.997   1.675   0.194 -0.8668 -0.2455 -0.7807
  326SOL    HW1  978   2.074   1.616   0.172  0.2461  1.0705 -0.5358
  326SOL    HW2  979   1.928   1.670   0.121 -0.4996 -1.3560 -1.0494
  327SOL     OW  980   0.322   2.042   1.382 -0.2067 -0.1530 -0.4931
  327SOL    HW1  981   0.245   2.008   1.436 -1.2296  0.3699 -1.5997
  327SOL    HW2  982   0.392   1.971   1.374 -2.0203 -1.8029 -2.2559
  328SOL     OW  983   1.253   0.099   0.206  0.3774 -0.0441 -0.1186
  328SOL    HW1  984   1.264   0.157   0.126 -3.2764  0.8857  0.0029
  328SOL    HW2  985   1.282   0.005   0.183 -1.0885  0.0839 -2.6773
  329SOL     OW  986   2.151   0.712   1.450 -0.0714 -0.2110  0.0758
  329SOL    HW1  987   2.196   0.784   1.503 -0.0595  1.0168 -1.5587
  329SOL    HW2  988   2.061   0.744   1.421 -0.2856 -1.0659 -0.2108
  330SOL     OW  989   1.778   1.669   2.309  0.6335 -0.3089  0.2757
  330SOL    HW1  990   1.780   1.668   2.209 -0.0623  1.0506  0.2344
  330SOL    HW2  991   1.748   1.580   2.343  1.0716 -0.8396 -0.7214
  331SOL     OW  992   2.311   2.066   1.332  0.0445  0.0732 -0.3648
  331SOL    HW1  993   2.265   2.104   1.251  0.6694  1.0997 -0.2552
  331SOL    HW2  994   2.274   2.109   1.414  0.9955  0.7106 -0.2601
  332SOL     OW  995   0.452   0.868   0.870  0.2790 -0.2589  0.2137
  332SOL    HW1  996   0.485   0.951   0.915  1.6153 -0.1773 -0.8811
  332SOL    HW2  997   0.481   0.788   0.922 -1.3027 -0.0594  1.4585
  333SOL     OW  998   1.975   1.971   2.038 -0.4174 -0.0293  0.1951
  333SOL    HW1  999   1.879   1.998   2.046 -0.6320 -0.7730  0.2091
  333SOL    HW2 1000   2.011   1.950   2.129 -0.4331 -0.3807  0.1205
  334SOL     OW 1001   1.020   1.426   1.653 -0.2741 -0.4384  0.9565
  334SOL    HW1 1002   1.022   1.449   1.555 -0.5080  1.4137  1.3615
  334SOL    HW2 1003   0.926   1.415   1.683 -0.2808  0.6045  1.3248
  335SOL     OW 1004   2.099   0.452   1.556 -0.2188  0.1437 -0.2592
  335SOL    HW1 1005   2.087   0.464   1.655  0.7072 -0.4486 -0.0630
  335SOL    HW2 1006   2.114   0.540   1.513  1.7851  0.1967  0.4774
  336SOL     OW 1007   1.279   0.181   0.689  0.3885  0.8550  0.3238
  336SOL    HW1 1008   1.352   0.140   0.633  0.8446  0.9497  0.8511
  336SOL    HW2 1009   1.317   0.209   0.777 -0.2787  0.9455  0.5785
  337SOL     OW 1010   0.148   1.463   1.793 -0.0652 -0.0673 -0.1378
  337SOL    HW1 1011   0.160   1.547   1.845  0.0240 -0.2755  0.1822
  337SOL    HW2 1012   0.050   1.446   1.779 -0.0434  1.2474 -2.1169
  338SOL     OW 1013   1.988   1.415   0.005 -0.1221 -0.0378  0.3481
  338SOL    HW1 1014   1.989   1.466  -0.080 -1.7294 -2.4659 -1.1975
  338SOL    HW2 1015   2.067   1.441   0.061  1.6960  0.6577 -2.4514
  339SOL     OW 1016   0.549   0.556   1.735 -0.1833 -0.2707 -0.0937
  339SOL    HW1 1017   0.549   0.517   1.643  0.6503  1.9508 -1.0645
  339SOL    HW2 1018   0.457   0.553   1.773 -0.9943  0.8487 -1.9060
  340SOL     OW 1019   0.191   1.896   1.567  0.1392  0.6740 -0.6878
  340SOL    HW1 1020   0.107   1.879   1.618  0.8289  1.4815  0.7807
  340SOL    HW2 1021   0.269   1.857   1.617  1.1111  3.4905  0.1057
  341SOL     OW 1022   0.774   0.917   1.038  0.2755  0.0835 -0.5426
  341SOL    HW1 1023   0.843   0.952   0.973 -0.1547 -0.3405 -1.2294
  341SOL    HW2 1024   0.683   0.944   1.007 -0.0031 -0.9904 -0.6620
  342SOL     OW 1025   1.099   0.656   0.488 -0.0078  0.1835 -0.6300
  342SOL    HW1 1026   1.124   0.563   0.515  2.1547  0.6554 -0.9711
  342SOL    HW2 1027   1.000   0.660   0.475 -0.0662 -2.2601 -1.2955
  343SOL     OW 1028   1.400   0.858   0.040 -0.7110  0.5744  0.3031
  343SOL    HW1 1029   1.344   0.779   0.011 -0.5118 -0.2557  2.1082
  343SOL    HW2 1030   1.496   0.839   0.021 -0.6355  0.2588  0.9854
  344SOL     OW 1031   0.853   1.852   1.848  0.0752  0.8117 -0.0594
  344SOL    HW1 1032   0.832   1.856   1.750  2.0750  1.2007 -0.4977
  344SOL    HW2 1033   0.886   1.761   1.871  0.5599  1.0118  0.0447
  345SOL     OW 1034   0.120   2.239   1.827 -0.0250  0.4408  0.0703
  345SOL    HW1 1035   0.153   2.269   1.737  0.8283  1.5834  0.7501
  345SOL    HW2 1036   0.065   2.311   1.868 -0.5698 -0.1541  0.3862
  346SOL     OW 1037   0.892   1.987   0.754  0.3488 -0.5446  0.3139
  346SOL    HW1 1038   0.798   1.962   0.775 -0.0934  1.0710  0.3143
  346SOL    HW2 1039   0.929   1.925   0.685 -1.0694 -0.5357 -0.4620
  347SOL     OW 1040   1.427   1.203   1.735 -0.3160 -0.2700  0.4975
  347SOL    HW1 1041   1.413   1.298   1.706 -0.4847 -0.0784  1.2031
  347SOL    HW2 1042   1.406   1.142   1.659 -0.8241  0.2299  0.2346
  348SOL     OW 1043   2.069   1.086   0.515  0.4090 -0.0011 -0.0853
  348SOL    HW1 1044   2.113   1.098   0.426  0.2669 -0.9492 -0.2903
  348SOL    HW2 1045   2.067   0.989   0.539 -0.1786  0.1790  0.6349
  349SOL     OW 1046   1.109   0.187   1.945  0.5397  0.0864  0.0361
  349SOL    HW1 1047   1.012   0.168   1.924  0.0634  2.2527  0.1795
  349SOL    HW2 1048   1.116   0.228   2.036  1.6274 -0.2997  0.1267
  350SOL     OW 1049   1.169   1.759   1.185  0.1143 -0.1748 -0.1235
  350SOL    HW1 1050   1.175   1.671   1.233 -0.8161  0.3626  0.9881
  350SOL    HW2 1051   1.208   1.749   1.093  3.4129 -0.8097  1.2536
  351SOL     OW 1052   1.361   0.599   0.347  0.0246 -0.1316  0.4647
  351SOL    HW1 1053   1.384   0.521   0.405  0.7030  0.6667  1.2771
  351SOL    HW2 1054   1.282   0.646   0.385  0.4428  0.3666  0.7173
  352SOL     OW 1055   1.556   0.422   0.645  0.7212 -0.5756  0.0795
  352SOL    HW1 1056   1.564   0.395   0.549 -1.1921 -0.7879 -0.0368
  352SOL    HW2 1057   1.600   0.354   0.703  1.3543 -0.7529 -0.5995
  353SOL     OW 1058   2.066   1.760   0.724  0.1707 -0.4641  0.6849
  353SOL    HW1 1059   2.119   1.726   0.801 -0.2727 -2.6570  0.0535
  353SOL    HW2 1060   2.122   1.758   0.641 -0.0956 -0.3387  0.5008
  354SOL     OW 1061   1.738   1.692   0.500  0.0415 -0.0753  0.3171
  354SOL    HW1 1062   1.655   1.691   0.556 -0.9180  1.4091 -1.0303
  354SOL    HW2 1063   1.743   1.608   0.447 -0.8271  0.0067  0.0967
  355SOL     OW 1064   0.383   1.848   1.961 -0.3262  0.5381 -0.2003
  355SOL    HW1 1065   0.457   1.860   2.028  0.5280 -0.0693 -1.0176
  355SOL    HW2 1066   0.371   1.933   1.910 -1.5454  1.2757  1.2677
  356SOL     OW 1067   0.913   2.222   1.632 -0.1270 -0.4033  1.0492
  356SOL    HW1 1068   0.928   2.231   1.730  1.4955 -0.4959  0.8313
  356SOL    HW2 1069   0.816   2.235   1.611 -0.5358 -0.7045  2.6921
  357SOL     OW 1070   1.828   0.456   0.211  0.6786 -0.0138 -0.2526
  357SOL    HW1 1071   1.750   0.518   0.210  0.4408 -0.2963  0.4033
  357SOL    HW2 1072   1.909   0.504   0.178  0.1396  0.1511 -1.3651
  358SOL     OW 1073   2.272   1.276   0.607  0.2358 -0.0586  0.2194
  358SOL    HW1 1074   2.211   1.201   0.582  0.8222 -0.4899  0.0626
  358SOL    HW2 1075   2.360   1.238   0.637  1.0460  0.6099 -1.2708
  359SOL     OW 1076   0.304   1.458   1.561  0.2257  0.6378  0.2600
  359SOL    HW1 1077   0.238   1.502   1.499 -0.7788 -0.5026  0.4947
  359SOL    HW2 1078   0.258   1.434   1.647  0.9108 -0.2567  0.3898
  360SOL     OW 1079   0.580   2.161   0.885  0.1370 -0.2508  0.0803
  360SOL    HW1 1080   0.597   2.072   0.842 -0.5821 -0.4303  0.1574
  360SOL    HW2 1081   0.526   2.219   0.824 -0.4135 -0.3062  0.5048
  361SOL     OW 1082   1.673   1.432   0.815 -0.1753 -0.7040 -0.5507
  361SOL    HW1 1083   1.753   1.471   0.770  0.5689 -0.1470  1.2012
  361SOL    HW2 1084   1.686   1.334   0.829  0.2918 -0.5852 -0.1222
  362SOL     OW 1085   0.243   1.113   0.810 -0.2947  0.1218  0.2323
  362SOL    HW1 1086   0.254   1.120   0.909  0.1483 -1.3313  0.2912
  362SOL    HW2 1087   0.292   1.033   0.777 -1.0146  0.2188 -1.0760
  363SOL     OW 1088   2.279   1.213   1.344 -0.4647  0.3494 -0.0979
  363SOL    HW1 1089   2.293   1.231   1.441 -1.2024  0.6789 -0.0453
  363SOL    HW2 1090   2.204   1.270   1.310  0.9743  1.5443 -1.2921
  364SOL     OW 1091   0.194   1.943   2.296  0.1016 -0.2055  0.0788
  364SOL    HW1 1092   0.192   2.043   2.297 -1.8177 -0.2283 -0.6529
  364SOL    HW2 1093   0.277   1.912   2.249  0.3801  1.0319 -0.2675
  365SOL     OW 1094   0.837   0.615   1.682  0.0527  0.3561  0.2247
  365SOL    HW1 1095   0.835   0.660   1.593  2.1382  1.0380  0.5000
  365SOL    HW2 1096   0.743   0.603   1.716 -0.7043  0.9022 -1.6367
  366SOL     OW 1097   2.349   0.666   2.345 -0.2522 -0.8452 -0.4257
  366SOL    HW1 1098   2.374   0.654   2.442 -2.9390 -1.0069  0.2679
  366SOL    HW2 1099   2.265   0.616   2.326 -1.0440  1.1565 -2.2928
  367SOL     OW 1100   1.721   0.098   1.780 -0.2370  0.2957 -0.0944
  367SOL    HW1 1101   1.777   0.025   1.817 -0.3916  0.5808  0.6981
  367SOL    HW2 1102   1.650   0.122   1.845 -1.0195  0.2329 -0.9109
  368SOL     OW 1103   1.693   1.639   1.462 -0.3398 -0.7118  0.0500
  368SOL    HW1 1104   1.705   1.642   1.363 -0.3536 -1.4191  0.0198
  368SOL    HW2 1105   1.598   1.614   1.483 -0.6079  0.4470  0.2516
  369SOL     OW 1106   2.303   0.267   1.719 -0.2203  0.1037 -0.5946
  369SOL    HW1 1107   2.236   0.227   1.657 -0.6096 -0.3187  0.0928
  369SOL    HW2 1108   2.313   0.364   1.698  2.1045 -0.6845 -3.4929
  370SOL     OW 1109   1.117   2.175   0.637 -0.1617 -0.2412  0.1172
  370SOL    HW1 1110   1.144   2.184   0.541 -0.8292 -0.1487 -0.0633
  370SOL    HW2 1111   1.108   2.078   0.660  3.0356 -0.3863  0.9447
  371SOL     OW 1112   0.121   0.104   1.380 -0.3722 -0.2103 -0.4500
  371SOL    HW1 1113   0.157   0.074   1.291  0.3533 -2.3763  0.5306
  371SOL    HW2 1114   0.147   0.199   1.396  2.1546 -0.7459 -1.1909
  372SOL     OW 1115   1.251   0.334   1.106 -0.2478 -0.0859  0.7389
  372SOL    HW1 1116   1.314   0.304   1.178  0.0283 -1.3129 -0.0045
  372SOL    HW2 1117   1.157   0.329   1.141 -0.0902 -0.3021  1.1391
  373SOL     OW 1118   1.268   1.474   0.323  0.2583  0.4683  0.3452
  373SOL    HW1 1119   1.343   1.476   0.257  0.5623  0.8614  0.6922
  373SOL    HW2 1120   1.186   1.435   0.281  0.9076 -0.7915  0.2274
  374SOL     OW 1121   0.850   0.470   0.837 -0.7434  0.3555 -0.0102
  374SOL    HW1 1122   0.848   0.374   0.811 -1.7434  0.2286  0.4918
  374SOL    HW2 1123   0.854   0.527   0.755  0.3791 -0.1191 -0.2911
  375SOL     OW 1124   0.156   0.255   0.850  0.2006  0.1192 -0.8054
  375SOL    HW1 1125   0.227   0.185   0.840 -0.4645 -0.3447 -2.6116
  375SOL    HW2 1126   0.133   0.292   0.760 -1.9439  0.1553 -0.2732
  376SOL     OW 1127   1.897   0.428   0.716  0.3669 -0.2076 -0.5565
  376SOL    HW1 1128   1.885   0.351   0.653 -1.6201 -0.2894 -0.1291
  376SOL    HW2 1129   1.860   0.403   0.806 -3.7275  2.4047 -1.3542
  377SOL     OW 1130   1.416   2.118   0.698 -0.4355 -0.3817 -0.3374
  377SOL    HW1 1131   1.364   2.139   0.616 -0.5364 -1.0435 -0.4440
  377SOL    HW2 1132   1.354   2.081   0.768 -0.4203  0.5231  0.1740
  378SOL     OW 1133   0.850   2.152   0.027 -0.3316 -0.2135 -0.4491
  378SOL    HW1 1134   0.751   2.148   0.036 -0.1754 -0.5870  1.1566
  378SOL    HW2 1135   0.890   2.194   0.108  0.8678 -0.5156 -0.8712
  379SOL     OW 1136   1.369   0.904   0.549  0.4515 -0.2716  0.0967
  379SOL    HW1 1137   1.368   0.922   0.647  0.0002 -2.0588  0.4485
  379SOL    HW2 1138   1.447   0.845   0.527  0.2572 -0.2926 -0.5318
  380SOL     OW 1139   0.980   0.056   1.028 -0.0808  0.4819 -0.1010
  380SOL    HW1 1140   1.024   0.040   0.940 -0.1533  0.4389 -0.1295
  380SOL    HW2 1141   0.919  -0.020   1.049 -1.9518  1.6543 -1.1666
  381SOL     OW 1142   0.636   0.206   1.787 -0.3930 -0.4291  0.9297
  381SOL    HW1 1143   0.560   0.195   1.723  0.2981  1.8495 -0.3357
  381SOL    HW2 1144   0.601   0.244   1.873 -0.9095 -0.9193  0.9430
  382SOL     OW 1145   0.733   2.265   2.165  0.0785  0.1894  0.2291
  382SOL    HW1 1146   0.731   2.364   2.179 -1.1142 -0.0324  1.7798
  382SOL    HW2 1147   0.804   2.224   2.223  1.4986  0.2715 -1.4271
  383SOL     OW 1148   1.874   0.237   2.007 -0.2315  0.2179 -0.1203
  383SOL    HW1 1149   1.848   0.162   1.946 -1.6387  0.1267  0.5716
  383SOL    HW2 1150   1.843   0.324   1.968 -1.8238  0.0866  0.8204
  384SOL     OW 1151   1.978   0.827   0.639  0.1447 -0.0654  0.4212
  384SOL    HW1 1152   2.045   0.834   0.714  0.3954 -1.1673  0.3180
  384SOL    HW2 1153   1.898   0.777   0.671  0.7852 -1.6636 -0.3746
  385SOL     OW 1154   2.318   0.724   1.763  0.6422  0.1153  0.3744
  385SOL    HW1 1155   2.353   0.817   1.750  1.1840 -0.1537 -0.0916
  385SOL    HW2 1156   2.234   0.728   1.818 -0.5207  1.0711 -1.4211
  386SOL     OW 1157   0.197   0.738   2.128  0.2136  0.2285  0.3866
  386SOL    HW1 1158   0.153   0.812   2.077  1.2189  1.5531  1.3725
  386SOL    HW2 1159   0.130   0.695   2.189 -0.2017  0.8766  0.3907
  387SOL     OW 1160   0.836   0.740   1.444 -0.1633  0.1355  0.4117
  387SOL    HW1 1161   0.805   0.835   1.450 -0.7386 -0.0361  0.1301
  387SOL    HW2 1162   0.891   0.729   1.362 -0.2915  0.1678  0.3214
  388SOL     OW 1163   1.215   0.440   0.606 -0.0024 -0.1601  0.0399
  388SOL    HW1 1164   1.265   0.485   0.680 -2.6393 -0.1172  1.8544
  388SOL    HW2 1165   1.241   0.343   0.603  0.5312 -0.0408  0.6480
  389SOL     OW 1166   0.549   1.929   2.177  0.4765  0.4167  0.0465
  389SOL    HW1 1167   0.507   2.018   2.196 -1.7983 -0.7871  0.8196
  389SOL    HW2 1168   0.645   1.943   2.151  0.5434  2.9889  1.4380
  390SOL     OW 1169   0.009   1.937   0.231 -0.1448 -0.0076  0.0609
  390SOL    HW1 1170  -0.089   1.922   0.244 -0.2618  0.9478  0.3708
  390SOL    HW2 1171   0.027   2.036   0.227  0.9478 -0.1415  1.2313
  391SOL     OW 1172   0.326   1.048   1.739  0.5957 -0.8236 -0.1408
  391SOL    HW1 1173   0.334   1.118   1.811  1.7205 -0.0406 -1.0029
  391SOL    HW2 1174   0.333   0.957   1.780  0.3398 -0.4054  0.8473
  392SOL     OW 1175   2.034   1.566   0.445  0.0883 -0.2000  0.2387
  392SOL    HW1 1176   1.995   1.592   0.357  1.8672 -0.0470 -0.5252
  392SOL    HW2 1177   2.101   1.634   0.473 -0.0978 -0.5171  1.4814
  393SOL     OW 1178   0.154   1.521   0.683  0.4050  0.2031  0.0023
  393SOL    HW1 1179   0.101   1.441   0.655  0.1267  0.2866  0.2841
  393SOL    HW2 1180   0.156   1.588   0.608 -0.1980  0.3561  0.1173
  394SOL     OW 1181   2.240   1.192   1.617 -0.3249  0.1819 -0.2716
  394SOL    HW1 1182   2.232   1.277   1.668 -1.1718 -0.4419  0.6347
  394SOL    HW2 1183   2.196   1.118   1.667  1.5661 -1.0744 -0.4026
  395SOL     OW 1184   0.785   1.403   1.800 -0.0500  0.1507 -0.1966
  395SOL    HW1 1185   0.696   1.431   1.835  0.8699  1.0522  1.5017
  395SOL    HW2 1186   0.780   1.308   1.768 -1.3515 -0.1451  0.8368
  396SOL     OW 1187   1.241   0.635   0.008  0.0201  0.1405 -0.5936
  396SOL    HW1 1188   1.166   0.697  -0.014 -0.1536 -0.3051 -1.2677
  396SOL    HW2 1189   1.229   0.600   0.101 -0.0018  0.9345 -0.2951
  397SOL     OW 1190   0.617   1.550   1.192 -0.5216  0.3733  0.2596
  397SOL    HW1 1191   0.694   1.519   1.247 -0.2447  1.9497  0.7977
  397SOL    HW2 1192   0.542   1.576   1.253 -1.6083 -1.4612 -0.2724
  398SOL     OW 1193   1.482   1.467   1.230 -0.3559 -0.1403 -0.6214
  398SOL    HW1 1194   1.540   1.385   1.232 -1.5100 -0.9723 -1.1350
  398SOL    HW2 1195   1.432   1.475   1.316  1.5048  1.3309  0.3885
  399SOL     OW 1196   0.889   1.284   0.744 -0.5346  0.1371  0.2114
  399SOL    HW1 1197   0.806   1.284   0.800  0.1402  0.5681  1.2229
  399SOL    HW2 1198   0.955   1.349   0.782  0.8877 -1.3397  0.3500
  400SOL     OW 1199   0.967   1.268   0.484 -0.6205  0.5910 -0.1100
  400SOL    HW1 1200   0.964   1.212   0.567  1.4722  0.7191  0.0689
  400SOL    HW2 1201   0.874   1.288   0.454 -1.3960  0.3136  2.0577
  401SOL     OW 1202   2.070   1.016   1.730 -0.1016 -0.2797 -0.1117
  401SOL    HW1 1203   2.086   0.921   1.756 -1.8853 -0.3741  0.8011
  401SOL    HW2 1204   2.050   1.070   1.813 -1.8818  0.2833 -0.8761
  402SOL     OW 1205   0.670   1.281   1.437 -0.1455  0.0787  0.7494
  402SOL    HW1 1206   0.574   1.260   1.419 -0.4852 -0.4438  3.1022
  402SOL    HW2 1207   0.698   1.241   1.524  1.5378  2.2107  1.2398
  403SOL     OW 1208   1.065   2.097   0.955  0.0399 -0.1560 -0.0681
  403SOL    HW1 1209   0.996   2.093   0.882  0.8168 -0.5920 -0.7831
  403SOL    HW2 1210   1.028   2.149   1.033 -2.1111 -2.6015  0.6345
  404SOL     OW 1211   0.910   2.219   0.306 -0.3995 -0.5229  0.2961
  404SOL    HW1 1212   0.952   2.128   0.300 -1.6697 -1.1694  0.9405
  404SOL    HW2 1213   0.957   2.272   0.376  0.0268 -0.8622  0.2742
  405SOL     OW 1214   1.547   0.021   1.213 -0.0933 -0.8814 -0.0213
  405SOL    HW1 1215   1.642   0.022   1.182 -0.6230 -0.7916 -1.6796
  405SOL    HW2 1216   1.490  -0.026   1.146 -1.4024  0.0768  0.3906
  406SOL     OW 1217   2.075   1.984   2.335  0.1319  0.0077  0.3450
  406SOL    HW1 1218   2.096   2.072   2.378 -1.2756 -0.1292  1.3250
  406SOL    HW2 1219   2.160   1.940   2.307  0.8434  1.8315 -0.4664
  407SOL     OW 1220   1.699   2.118   1.401  0.0481 -0.3013  0.2656
  407SOL    HW1 1221   1.677   2.215   1.404 -0.7235 -0.3999 -1.7681
  407SOL    HW2 1222   1.661   2.073   1.482 -2.8462  0.4362 -0.6367
  408SOL     OW 1223   1.466   2.260   0.983 -0.2453  0.2621 -0.5479
  408SOL    HW1 1224   1.405   2.201   1.036  0.6805  0.3790  0.6475
  408SOL    HW2 1225   1.541   2.205   0.946 -0.9448  0.1544 -1.8765
  409SOL     OW 1226   1.840   1.926   0.601  0.0621 -0.2372 -0.3466
  409SOL    HW1 1227   1.810   1.846   0.550  0.9353 -0.8809  0.1413
  409SOL    HW2 1228   1.923   1.904   0.652 -0.3184  0.6501  0.6706
  410SOL     OW 1229   0.503   1.729   1.697  0.0007  0.4236 -0.2215
  410SOL    HW1 1230   0.560   1.658   1.738 -0.8773  0.2285  0.6950
  410SOL    HW2 1231   0.523   1.817   1.739 -1.3059  0.1243  1.0470
  411SOL     OW 1232   1.596   1.964   0.876 -0.0761  0.3485  0.2695
  411SOL    HW1 1233   1.501   1.986   0.853  0.2963  1.0305 -0.6390
  411SOL    HW2 1234   1.653   1.973   0.794  0.5846 -1.1619  0.5425
  412SOL     OW 1235   1.317   1.457   1.704  0.3100 -0.2382  0.2896
  412SOL    HW1 1236   1.335   1.501   1.792  0.3682 -0.6693  0.4936
  412SOL    HW2 1237   1.219   1.440   1.694  0.4843 -1.8160  1.0548
  413SOL     OW 1238   0.180   2.258   0.460 -0.0687 -0.4782 -0.0862
  413SOL    HW1 1239   0.138   2.271   0.550 -0.1539  0.5754 -0.2734
  413SOL    HW2 1240   0.190   2.346   0.414 -0.3905 -1.0415 -1.2747
  414SOL     OW 1241   0.736   1.024   0.703  0.2243 -0.3144  0.0173
  414SOL    HW1 1242   0.668   1.044   0.632 -0.6312  0.1085  0.9522
  414SOL    HW2 1243   0.827   1.040   0.666 -0.2416  0.5740 -0.7834
  415SOL     OW 1244   0.800   0.122   0.512 -0.2632  0.1009 -0.4314
  415SOL    HW1 1245   0.778   0.026   0.527 -0.9847  0.4496  0.8753
  415SOL    HW2 1246   0.897   0.132   0.492 -0.2690 -0.9390 -1.0005
  416SOL     OW 1247   0.803   2.200   1.042  0.0053 -0.2047 -0.6423
  416SOL    HW1 1248   0.728   2.189   0.977 -0.5335 -1.3439  0.1405
  416SOL    HW2 1249   0.778   2.157   1.129  1.5309 -0.4985 -0.3324
  417SOL     OW 1250   0.855   0.822   2.136 -0.4519 -0.8835  0.0079
  417SOL    HW1 1251   0.795   0.860   2.066  0.6445 -0.6753 -0.8310
  417SOL    HW2 1252   0.800   0.770   2.202 -1.5569 -0.6334 -0.6948
   2.36036   2.36036   2.36036
