Protein in water
 1252
    1ETHH    EH    1   0.206   1.280   0.707 -0.2549  2.1466  2.9437
    1ETHH    EO    2   0.132   1.310   0.771  0.1662  0.1400  0.6248
    1ETHH   EC1    3   0.149   1.452   0.776 -0.3225  0.0813 -0.2349
    1ETHH   EC2    4   0.293   1.496   0.763  0.0100 -0.3194  0.0254
    2SOL     OW    5   1.770   1.515   0.330 -0.4160  0.5230 -0.4638
    2SOL    HW1    6   1.773   1.610   0.363 -1.8048  0.5337 -0.2897
    2SOL    HW2    7   1.860   1.473   0.340 -0.2576  1.2019  1.3863
    3SOL     OW    8   1.716   0.981   1.598 -0.0391  0.6048  0.2868
    3SOL    HW1    9   1.637   0.929   1.564 -1.6943  0.3720  3.9690
    3SOL    HW2   10   1.782   0.919   1.639  1.2703  0.9546 -1.2205
    4SOL     OW   11   0.867   1.572   1.881  0.6736  0.1568 -0.6477
    4SOL    HW1   12   0.960   1.596   1.853  0.5159 -0.0871 -1.4113
    4SOL    HW2   13   0.802   1.631   1.833  0.4143 -0.0266 -0.5188
    5SOL     OW   14   0.580   2.119   2.249 -0.0164 -0.0196 -0.2937
    5SOL    HW1   15   0.490   2.118   2.293 -0.8933  0.6086 -1.9892
    5SOL    HW2   16   0.651   2.105   2.318 -1.3333  0.6958  1.2736
    6SOL     OW   17   0.719   0.937   1.058 -0.0071  0.3949  0.0607
    6SOL    HW1   18   0.676   0.868   1.116 -0.6511  0.3405 -0.4711
    6SOL    HW2   19   0.711   0.910   0.962 -2.4284  2.3197 -0.3952
    7SOL     OW   20   0.395   1.749   0.472  0.4236 -0.1995 -0.0805
    7SOL    HW1   21   0.371   1.659   0.510  0.0267  0.0395  0.2548
    7SOL    HW2   22   0.476   1.784   0.518  0.9978 -0.6929 -0.7053
    8SOL     OW   23   1.482   1.022   1.845 -0.5415  0.0431  0.0750
    8SOL    HW1   24   1.527   0.984   1.926  2.5142  0.9432 -1.0794
    8SOL    HW2   25   1.474   1.121   1.855  1.4513  0.4093 -1.3330
    9SOL     OW   26   1.562   0.978   2.329 -0.0544  0.6230 -0.1174
    9SOL    HW1   27   1.475   1.026   2.320  0.2338  0.8802 -2.0637
    9SOL    HW2   28   1.558   0.915   2.406 -1.6023  1.3511  0.4397
   10SOL     OW   29   0.163   1.893   1.672 -0.2202 -0.5768  0.0228
   10SOL    HW1   30   0.190   1.989   1.670 -1.2813 -0.1593  2.3621
   10SOL    HW2   31   0.241   1.837   1.700  0.4824 -0.4720 -1.6361
   11SOL     OW   32   1.664   0.307   1.504  0.1622 -0.4330  0.5989
   11SOL    HW1   33   1.582   0.337   1.454  0.1868  0.2585  0.9610
   11SOL    HW2   34   1.686   0.213   1.478 -0.4220 -0.4352  0.0785
   12SOL     OW   35   2.268   0.501   0.333 -0.1506 -0.0852  0.9633
   12SOL    HW1   36   2.324   0.538   0.407 -0.5641  2.0810  0.2534
   12SOL    HW2   37   2.183   0.463   0.370  0.8355 -1.5518  1.8305
   13SOL     OW   38   0.703   1.350   1.427 -0.0500  0.2869 -0.3172
   13SOL    HW1   39   0.763   1.294   1.484 -1.3231  0.2483  1.0657
   13SOL    HW2   40   0.685   1.302   1.341 -1.1471 -1.5300  0.8494
   14SOL     OW   41   1.912   0.108   0.727 -0.5560 -0.2711 -0.1103
   14SOL    HW1   42   1.935   0.200   0.759  0.3799 -0.9794  1.3819
   14SOL    HW2   43   1.918   0.105   0.628  2.5423  0.5416 -0.0704
   15SOL     OW   44   0.652   1.710   1.737 -0.4071 -0.1987 -0.1854
   15SOL    HW1   45   0.713   1.696   1.658  1.2876 -1.0545  1.1865
   15SOL    HW2   46   0.559   1.684   1.712  0.3184 -1.7175 -1.5306
   16SOL     OW   47   1.109   2.052   0.889 -0.1529 -0.1390 -0.1299
   16SOL    HW1   48   1.200   2.091   0.904 -0.0547 -1.0919  2.1419
   16SOL    HW2   49   1.091   2.047   0.791  2.2015  0.1567 -0.6413
   17SOL     OW   50   0.612   2.175   0.765  0.1287  0.4763 -0.3822
   17SOL    HW1   51   0.696   2.225   0.786 -0.0489  0.8387 -0.5164
   17SOL    HW2   52   0.635   2.088   0.721  0.4130  1.6721 -2.8019
   18SOL     OW   53   0.281   1.541   0.258  0.1855 -0.1232 -0.4041
   18SOL    HW1   54   0.320   1.633   0.260  0.8818 -0.3703 -1.5133
   18SOL    HW2   55   0.182   1.547   0.251  0.2458  0.5592 -0.8203
   19SOL     OW   56   0.121   1.497   2.034  0.4507 -0.0981 -0.2442
   19SOL    HW1   57   0.064   1.425   2.074  0.1174 -0.5143 -1.4353
   19SOL    HW2   58   0.066   1.581   2.025 -0.4148 -0.8184 -2.4696
   20SOL     OW   59   1.446   2.008   1.478 -0.6741 -0.0317  0.2293
   20SOL    HW1   60   1.391   2.007   1.395 -0.5007 -0.8376  0.1188
   20SOL    HW2   61   1.399   2.061   1.549 -1.8378 -1.0854  0.2915
   21SOL     OW   62   1.650   0.225   0.291  0.2230  0.0347 -0.0389
   21SOL    HW1   63   1.555   0.220   0.263 -0.0888 -0.4975  1.0412
   21SOL    HW2   64   1.658   0.277   0.376  0.8393 -0.2229  0.0734
   22SOL     OW   65   2.072   1.696   2.318  0.1593  0.1832 -0.1256
   22SOL    HW1   66   2.082   1.651   2.229  0.9986  0.9045 -0.4019
   22SOL    HW2   67   1.982   1.738   2.324  0.8109  1.8870 -1.4741
   23SOL     OW   68   0.524   1.947   1.693 -0.1894  0.3015  0.3317
   23SOL    HW1   69   0.585   1.877   1.729  0.4079  1.2662  1.2407
   23SOL    HW2   70   0.473   1.910   1.615  1.0398 -0.7412 -0.0078
   24SOL     OW   71   0.331   0.200   0.937 -0.2477 -0.5703  0.1719
   24SOL    HW1   72   0.376   0.278   0.980  0.2192  0.2811 -1.7414
   24SOL    HW2   73   0.376   0.115   0.966  0.2180 -0.0140  1.1140
   25SOL     OW   74   1.009   0.466   2.298  0.2936 -0.6591  0.4907
   25SOL    HW1   75   1.067   0.386   2.311 -0.1751 -1.3287 -1.2363
   25SOL    HW2   76   1.047   0.524   2.226 -1.1965 -1.1901 -0.7959
   26SOL     OW   77   1.983   0.685   1.572 -0.1375 -0.4271  0.5063
   26SOL    HW1   78   2.039   0.751   1.623  0.4067 -1.8132  1.7568
   26SOL    HW2   79   1.987   0.707   1.474  1.7584  0.1301  0.6700
   27SOL     OW   80   1.352   0.684   0.074  0.0935  0.5768  0.1859
   27SOL    HW1   81   1.348   0.741   0.156  0.8731 -0.2667  0.8281
   27SOL    HW2   82   1.328   0.590   0.097  1.4859  0.0793 -0.3011
   28SOL     OW   83   0.693   0.833   0.806 -0.4009  0.2568 -0.2450
   28SOL    HW1   84   0.619   0.776   0.769 -0.9549  0.2114  0.8729
   28SOL    HW2   85   0.767   0.840   0.739 -1.2328 -0.0476 -1.2217
   29SOL     OW   86   0.079   0.989   0.102 -0.5264 -0.4226 -0.9368
   29SOL    HW1   87  -0.014   1.004   0.136  0.1029 -0.2726  0.8231
   29SOL    HW2   88   0.113   1.073   0.060 -0.9522 -0.2933 -1.0350
   30SOL     OW   89   0.468   0.267   0.454  0.4673  0.2806  0.3768
   30SOL    HW1   90   0.505   0.244   0.364 -0.2662  0.2474  0.0733
   30SOL    HW2   91   0.527   0.229   0.525  1.3626  0.7835 -0.0750
   31SOL     OW   92   1.512   1.438   0.517  0.8958 -0.3319 -0.2778
   31SOL    HW1   93   1.445   1.384   0.465  0.3887  0.5213 -0.5354
   31SOL    HW2   94   1.482   1.446   0.612  1.3089 -1.0393 -0.0763
   32SOL     OW   95   2.165   1.458   1.756  0.1337 -0.3931 -0.0724
   32SOL    HW1   96   2.178   1.489   1.662  0.0827  0.4863  0.1975
   32SOL    HW2   97   2.095   1.515   1.800  0.4802 -0.5036  0.6345
   33SOL     OW   98   1.864   0.406   1.331 -0.4642 -0.0491  0.4859
   33SOL    HW1   99   1.785   0.400   1.393 -0.5540  1.4565  0.5599
   33SOL    HW2  100   1.928   0.475   1.366  0.6932 -0.9406  0.1911
   34SOL     OW  101   2.037   1.171   1.156  0.5145 -0.1257  0.2377
   34SOL    HW1  102   1.963   1.239   1.161  0.1471 -0.5502  0.6353
   34SOL    HW2  103   2.125   1.218   1.163  0.2614  0.3178  0.5233
   35SOL     OW  104   0.162   0.163   2.248 -0.2167 -0.1531  0.5917
   35SOL    HW1  105   0.171   0.097   2.173  0.2687 -0.6437  1.0728
   35SOL    HW2  106   0.094   0.232   2.224  0.2498 -0.0534 -0.4769
   36SOL     OW  107   2.131   1.962   0.775  0.1930 -0.1815 -0.0233
   36SOL    HW1  108   2.150   1.921   0.686 -0.7483 -0.7529  0.0245
   36SOL    HW2  109   2.178   2.050   0.781  1.0554 -0.5774 -0.6950
   37SOL     OW  110   2.170   0.443   1.301  0.1094 -0.4523 -0.6286
   37SOL    HW1  111   2.154   0.386   1.381 -1.4911  1.4578  0.5067
   37SOL    HW2  112   2.249   0.502   1.318 -0.9413  0.7953  0.0996
   38SOL     OW  113   1.951   0.093   0.440  0.0716  0.2608  0.5342
   38SOL    HW1  114   2.033   0.047   0.475 -0.6642 -1.8694 -0.3239
   38SOL    HW2  115   1.977   0.178   0.395  1.9367 -0.6938 -0.3468
   39SOL     OW  116   1.679   0.087   0.054 -0.3729 -0.4618 -0.4492
   39SOL    HW1  117   1.722   0.147  -0.012  0.7582 -1.7830 -0.9526
   39SOL    HW2  118   1.676   0.132   0.144  1.8487 -0.2264 -0.4486
   40SOL     OW  119   1.677   0.968   1.178 -0.5121 -0.3643  0.0534
   40SOL    HW1  120   1.722   0.912   1.108  1.3810  3.1634 -1.8396
   40SOL    HW2  121   1.637   1.049   1.135 -0.0051  1.5686  2.9224
   41SOL     OW  122   1.507   1.498   2.201 -0.4310  0.1374  0.0074
   41SOL    HW1  123   1.541   1.543   2.119 -0.2340 -0.1281 -0.0588
   41SOL    HW2  124   1.582   1.485   2.266 -0.5215  0.0583  0.0979
   42SOL     OW  125   0.679   0.376   1.711 -0.6457 -0.0708  0.2517
   42SOL    HW1  126   0.658   0.282   1.738 -0.9528 -0.2582 -0.6083
   42SOL    HW2  127   0.751   0.376   1.642  0.5948  0.4404  1.5037
   43SOL     OW  128   1.684   0.035   1.468 -0.4059  0.1625 -0.0493
   43SOL    HW1  129   1.607   0.014   1.408  0.6894  1.1545 -1.8750
   43SOL    HW2  130   1.737  -0.048   1.484 -0.2630  0.0330 -1.1294
   44SOL     OW  131   2.150   0.841   1.740  0.3443  0.1107 -0.4413
   44SOL    HW1  132   2.203   0.779   1.799 -0.0236 -0.0674 -0.2951
   44SOL    HW2  133   2.201   0.926   1.727  0.0541  0.5153  0.8820
   45SOL     OW  134   2.248   1.894   0.103  0.0426 -0.4107 -0.1547
   45SOL    HW1  135   2.189   1.826   0.061 -0.7829  0.3029 -0.1820
   45SOL    HW2  136   2.197   1.942   0.176  0.1268  1.1080 -1.0431
   46SOL     OW  137   0.599   1.897   0.606  0.1202 -0.4001 -0.0011
   46SOL    HW1  138   0.679   1.910   0.664  0.4475 -1.4940 -0.1990
   46SOL    HW2  139   0.615   1.943   0.518 -0.5810  1.6910  0.9040
   47SOL     OW  140   1.278   1.679   1.398 -0.3527  0.5901  0.3223
   47SOL    HW1  141   1.289   1.607   1.330  0.0871 -0.9833  1.9787
   47SOL    HW2  142   1.221   1.752   1.361 -1.4234 -0.9316 -1.1681
   48SOL     OW  143   0.099   1.787   2.186 -0.1045  0.1949  0.4354
   48SOL    HW1  144   0.112   1.848   2.264  1.9803  0.4480 -0.0389
   48SOL    HW2  145   0.182   1.734   2.171 -1.4678 -1.9693  0.1335
   49SOL     OW  146   2.009   0.648   1.943  0.5267 -0.1304 -0.7056
   49SOL    HW1  147   2.064   0.714   1.995 -2.0167  1.0925  0.6062
   49SOL    HW2  148   2.065   0.568   1.921  2.3730  0.2968  1.9794
   50SOL     OW  149   0.424   0.448   1.025  0.0672  0.1897 -0.4344
   50SOL    HW1  150   0.382   0.485   0.943 -0.4535 -0.2792 -0.3849
   50SOL    HW2  151   0.408   0.509   1.102  0.2088  0.4274 -0.5910
   51SOL     OW  152   0.391   1.791   0.207 -0.7194  0.7192  0.2457
   51SOL    HW1  153   0.313   1.848   0.180 -0.3649  1.4338  0.7094
   51SOL    HW2  154   0.410   1.804   0.304 -0.3654  0.1226  0.2609
   52SOL     OW  155   0.618   0.782   0.428  0.1549  0.3307  0.0297
   52SOL    HW1  156   0.638   0.879   0.412 -0.9927  0.5723 -0.0153
   52SOL    HW2  157   0.698   0.738   0.469  0.4614  1.4584  0.6876
   53SOL     OW  158   1.908   0.327   0.239 -0.1672 -0.3188  0.2082
   53SOL    HW1  159   1.910   0.400   0.171  0.9146 -0.5786 -0.0587
   53SOL    HW2  160   1.813   0.305   0.263 -0.6356 -1.1400 -2.1820
   54SOL     OW  161   1.866   1.832   2.093  0.0726 -0.2851 -0.1746
   54SOL    HW1  162   1.834   1.775   2.168 -2.8647  1.0562 -0.2758
   54SOL    HW2  163   1.916   1.911   2.129  1.2177 -1.1492  0.1598
   55SOL     OW  164   1.346   0.098   0.186  0.4308  0.0335  0.1356
   55SOL    HW1  165   1.318   0.173   0.126 -1.8248  0.2044  1.2786
   55SOL    HW2  166   1.368   0.018   0.131 -0.0071  0.6558 -0.9831
   56SOL     OW  167   1.488   0.659   1.478  0.5077 -0.4658 -0.7159
   56SOL    HW1  168   1.497   0.753   1.443 -1.5779  0.8390  1.8947
   56SOL    HW2  169   1.556   0.643   1.549  0.6387 -0.8384 -0.9210
   57SOL     OW  170   0.307   0.952   1.085  0.3536  0.6229 -0.0659
   57SOL    HW1  171   0.279   1.047   1.077 -1.8443  0.0363 -0.2277
   57SOL    HW2  172   0.229   0.897   1.116  1.9220 -0.9356  1.3615
   58SOL     OW  173   1.868   1.928   0.759 -0.0731 -0.5147 -0.3572
   58SOL    HW1  174   1.968   1.933   0.751 -0.1160 -1.5160 -2.0583
   58SOL    HW2  175   1.844   1.858   0.827  0.3509  0.6101  0.9992
   59SOL     OW  176   0.712   1.357   0.044  0.2342 -0.1741 -0.2162
   59SOL    HW1  177   0.702   1.395   0.135  0.0866 -0.4328 -0.1234
   59SOL    HW2  178   0.792   1.397  -0.001 -0.4581  0.9647 -0.4860
   60SOL     OW  179   1.739   1.502   1.325 -0.3958 -0.7035 -0.4815
   60SOL    HW1  180   1.815   1.492   1.389  0.6941  0.0991 -1.6165
   60SOL    HW2  181   1.691   1.587   1.344  0.0674 -0.3536 -0.8742
   61SOL     OW  182   1.572   0.012   1.079 -0.7546 -0.4481 -0.6640
   61SOL    HW1  183   1.561   0.112   1.082 -1.1722 -0.5070 -0.1490
   61SOL    HW2  184   1.594  -0.016   0.985 -2.2679 -0.0343 -1.1656
   62SOL     OW  185   0.855   0.644   0.506  0.9405 -0.3279  0.4109
   62SOL    HW1  186   0.832   0.552   0.475  1.2995 -0.5886  0.9029
   62SOL    HW2  187   0.955   0.652   0.516  1.1727  0.8829 -2.0210
   63SOL     OW  188   1.406   1.197   1.470 -0.1030 -0.1276  0.6735
   63SOL    HW1  189   1.483   1.245   1.427 -0.4177 -0.3596 -0.1713
   63SOL    HW2  190   1.369   1.253   1.544 -0.2466  0.7956 -0.0736
   64SOL     OW  191   2.170   2.287   2.065  0.0483  0.5861  0.0216
   64SOL    HW1  192   2.246   2.263   2.126  0.8168  2.3279 -0.1903
   64SOL    HW2  193   2.189   2.253   1.973  0.0262  0.0268  0.2222
   65SOL     OW  194   0.621   0.177   0.650  0.2888  0.0249  0.1593
   65SOL    HW1  195   0.649   0.218   0.737  2.2983 -0.9472  0.0429
   65SOL    HW2  196   0.638   0.078   0.653  1.3718  0.1105 -1.6440
   66SOL     OW  197   0.289   0.476   0.120 -0.4801 -0.3957 -0.7630
   66SOL    HW1  198   0.336   0.512   0.200 -0.1220  0.2403 -1.2449
   66SOL    HW2  199   0.215   0.538   0.094 -0.2304 -0.2912 -1.2517
   67SOL     OW  200   2.253   2.066   1.869  0.3267 -0.1163 -0.4604
   67SOL    HW1  201   2.351   2.079   1.884 -0.2918  1.8271  3.2001
   67SOL    HW2  202   2.233   1.968   1.864  2.3249 -0.6184  0.2925
   68SOL     OW  203   2.105   0.290   1.527  0.1139  0.3402  0.3866
   68SOL    HW1  204   2.086   0.214   1.465 -1.2205  0.8394  0.1479
   68SOL    HW2  205   2.023   0.311   1.580  0.6377  1.2343  0.8672
   69SOL     OW  206   2.139   0.692   0.135  0.3594 -0.2079  0.0557
   69SOL    HW1  207   2.058   0.634   0.142 -0.3958  0.9260  1.3477
   69SOL    HW2  208   2.126   0.759   0.061  1.5765 -2.0939 -2.0013
   70SOL     OW  209   0.441   1.181   1.842 -0.2772 -0.4058  0.0409
   70SOL    HW1  210   0.426   1.241   1.921  0.8739  1.0480 -0.8013
   70SOL    HW2  211   0.437   1.234   1.758  0.2348 -1.6197 -0.7821
   71SOL     OW  212   0.972   2.274   1.766 -0.2073  0.7706  0.2206
   71SOL    HW1  213   1.032   2.354   1.768 -1.1629  1.5210 -0.4461
   71SOL    HW2  214   0.887   2.294   1.816 -0.7973  0.4717 -0.6349
   72SOL     OW  215   0.838   1.613   1.548  0.2429  0.1376 -0.5773
   72SOL    HW1  216   0.907   1.625   1.477  0.8116 -0.1235 -0.0798
   72SOL    HW2  217   0.770   1.546   1.518  0.0084  0.6414 -1.2031
   73SOL     OW  218   1.804   1.762   0.010  0.0501  0.6078  0.0853
   73SOL    HW1  219   1.755   1.833   0.061  1.0427  0.8788  0.6871
   73SOL    HW2  220   1.777   1.672   0.043  1.0817  0.7859  1.5229
   74SOL     OW  221   0.571   1.122   0.154  0.0777  0.4123  0.1402
   74SOL    HW1  222   0.534   1.060   0.084  0.4274  0.3411  0.0163
   74SOL    HW2  223   0.585   1.212   0.114  0.8706  0.2075 -0.0571
   75SOL     OW  224   0.344   1.678   1.061  0.1020 -0.1504  0.5258
   75SOL    HW1  225   0.308   1.725   1.142  1.0112  1.2210  0.1580
   75SOL    HW2  226   0.270   1.660   0.997 -0.2161  1.0632  0.5438
   76SOL     OW  227   1.260   1.367   1.643 -0.0044  0.0651  0.1853
   76SOL    HW1  228   1.268   1.467   1.648 -2.1263  0.3216 -0.7289
   76SOL    HW2  229   1.166   1.340   1.664  0.6562 -1.8123  0.9187
   77SOL     OW  230   0.864   0.256   0.120 -0.5756  0.3888  0.3021
   77SOL    HW1  231   0.909   0.326   0.064 -0.8993 -1.3269 -2.2821
   77SOL    HW2  232   0.932   0.208   0.175  0.4257 -0.3863 -1.5291
   78SOL     OW  233   1.533   0.916   1.405 -0.4155 -0.2631  0.1893
   78SOL    HW1  234   1.587   0.933   1.322 -0.2248 -1.7481 -0.0093
   78SOL    HW2  235   1.463   0.987   1.413  0.9276  1.1652 -0.0533
   79SOL     OW  236   0.924   1.787   0.485  0.1745 -0.0998  0.2021
   79SOL    HW1  237   1.008   1.836   0.461 -0.8506  0.8474 -1.7111
   79SOL    HW2  238   0.856   1.853   0.516 -0.5082 -0.6042 -0.2055
   80SOL     OW  239   1.522   0.576   0.330 -0.3089  0.0399  0.9904
   80SOL    HW1  240   1.501   0.669   0.361  2.8325  0.4867  2.1510
   80SOL    HW2  241   1.555   0.522   0.408  1.8784 -0.7402 -0.3759
   81SOL     OW  242   0.042   0.596   1.366 -0.1977  0.2138  0.2897
   81SOL    HW1  243   0.105   0.535   1.413  0.2133 -1.2281 -1.9761
   81SOL    HW2  244   0.016   0.671   1.427  2.3074 -0.1001  1.8793
   82SOL     OW  245   2.201   2.054   1.351 -0.6350 -0.3632 -0.2242
   82SOL    HW1  246   2.188   2.077   1.448  0.4170  0.2348 -0.2198
   82SOL    HW2  247   2.153   2.121   1.294  1.9443  1.6675 -0.1955
   83SOL     OW  248   0.798   1.936   0.772  0.0358  0.0041  0.1378
   83SOL    HW1  249   0.879   1.988   0.746 -0.2497  0.3395 -0.1022
   83SOL    HW2  250   0.783   1.943   0.871  1.4805 -1.7832  0.5262
   84SOL     OW  251   0.401   0.952   0.828 -0.1491  0.3240 -0.2023
   84SOL    HW1  252   0.364   0.957   0.920 -1.2778  3.0985 -0.7054
   84SOL    HW2  253   0.479   1.015   0.819 -1.1499  1.4518 -1.5289
   85SOL     OW  254   0.674   0.119   1.821  0.5826  0.4283 -0.3359
   85SOL    HW1  255   0.642   0.025   1.820  0.1440  0.5845 -1.3838
   85SOL    HW2  256   0.689   0.148   1.916  3.0234 -1.4574 -0.0522
   86SOL     OW  257   1.114   0.371   0.858  0.6361  0.1131 -0.9115
   86SOL    HW1  258   1.134   0.300   0.926  1.4138  1.4504  0.3056
   86SOL    HW2  259   1.036   0.425   0.889  0.2112 -0.0247 -1.7096
   87SOL     OW  260   0.234   0.614   1.581  0.7654  0.2179 -0.4924
   87SOL    HW1  261   0.233   0.712   1.600  0.5221  0.0818  0.2087
   87SOL    HW2  262   0.327   0.579   1.590  0.4247 -0.1647  2.1829
   88SOL     OW  263   0.143   1.826   0.836 -0.4643 -0.3136 -0.2532
   88SOL    HW1  264   0.107   1.896   0.897 -0.0863 -0.1387 -0.2272
   88SOL    HW2  265   0.243   1.836   0.828 -0.5031 -0.3477 -0.8777
   89SOL     OW  266   0.347   2.157   0.847  1.2542 -0.5660  0.3691
   89SOL    HW1  267   0.350   2.091   0.922  1.2654 -1.5795 -0.5075
   89SOL    HW2  268   0.437   2.165   0.806  1.1074 -0.4891  0.0599
   90SOL     OW  269   0.144   0.734   1.972 -0.6092 -0.4429 -0.3472
   90SOL    HW1  270   0.181   0.670   2.040 -2.2877 -0.0214  1.0444
   90SOL    HW2  271   0.213   0.803   1.950 -0.3763  0.1405  1.9304
   91SOL     OW  272   0.355   0.523   0.393  0.8429 -0.1837  0.3246
   91SOL    HW1  273   0.373   0.425   0.396 -1.7678 -0.7699 -0.5991
   91SOL    HW2  274   0.435   0.571   0.358  2.2961 -1.9052  1.1180
   92SOL     OW  275   1.749   0.906   2.093  0.4045 -0.0974  0.2505
   92SOL    HW1  276   1.679   0.937   2.158  0.1291 -0.1856 -0.0013
   92SOL    HW2  277   1.820   0.976   2.086  1.2646 -0.7696  1.8464
   93SOL     OW  278   1.643   1.714   0.670 -0.4443  0.6467 -0.6921
   93SOL    HW1  279   1.664   1.681   0.578  0.8847 -1.2490  0.2088
   93SOL    HW2  280   1.561   1.771   0.667 -1.7717 -1.1754 -2.7272
   94SOL     OW  281   1.243   0.170   0.696 -0.0141  0.2232 -0.4191
   94SOL    HW1  282   1.264   0.094   0.758 -1.6133 -0.2207 -0.3779
   94SOL    HW2  283   1.186   0.236   0.744  0.4866  0.9346 -0.7939
   95SOL     OW  284   1.057   0.772   1.702 -0.3785  0.4132  0.1160
   95SOL    HW1  285   1.017   0.748   1.790  1.8921  0.2082  1.1629
   95SOL    HW2  286   1.128   0.841   1.715  0.4399 -0.0685 -1.4687
   96SOL     OW  287   1.029   1.317   1.797  0.0295  0.0598 -0.0598
   96SOL    HW1  288   0.986   1.400   1.833  0.6440  1.2417 -1.8883
   96SOL    HW2  289   0.968   1.275   1.730 -0.5830 -1.4137  1.3698
   97SOL     OW  290   2.306   0.808   1.498 -0.4121 -0.0429 -0.3040
   97SOL    HW1  291   2.283   0.810   1.595  1.4573 -0.0130  0.1669
   97SOL    HW2  292   2.233   0.852   1.446 -0.8406  1.1221  1.2104
   98SOL     OW  293   2.179   1.647   0.520 -0.4978  0.1296  0.1808
   98SOL    HW1  294   2.147   1.619   0.610 -0.1106 -0.3477  0.1745
   98SOL    HW2  295   2.237   1.729   0.529 -0.0627 -0.2014  0.4258
   99SOL     OW  296   1.238   0.777   2.170 -0.0851 -0.2075  0.1087
   99SOL    HW1  297   1.289   0.752   2.253  1.5555  0.9728 -0.4875
   99SOL    HW2  298   1.275   0.725   2.092 -0.2660  0.1367 -0.2106
  100SOL     OW  299   0.231   2.311   2.051 -0.2121 -0.6297  0.0939
  100SOL    HW1  300   0.226   2.212   2.041  1.2760 -0.8603  1.3104
  100SOL    HW2  301   0.220   2.354   1.962  1.5976 -2.0204 -0.8648
  101SOL     OW  302   0.293   1.261   0.231  0.1769  0.3951 -0.1894
  101SOL    HW1  303   0.358   1.223   0.165 -1.5258  1.0233 -2.3647
  101SOL    HW2  304   0.292   1.360   0.223 -0.0632  0.4858  0.8265
  102SOL     OW  305   1.447   1.922   0.191  0.3312  0.6317 -0.4471
  102SOL    HW1  306   1.400   2.011   0.190  0.2884  0.6379  0.5994
  102SOL    HW2  307   1.543   1.934   0.169  0.2522  0.8911 -0.6525
  103SOL     OW  308   0.146   1.182   1.432 -0.0064 -0.0861 -0.5528
  103SOL    HW1  309   0.136   1.268   1.482  0.6378 -0.9749  1.1785
  103SOL    HW2  310   0.238   1.146   1.446  0.0083 -0.6500 -1.9609
  104SOL     OW  311   1.838   1.466   1.609  0.2145 -0.2996 -0.0985
  104SOL    HW1  312   1.777   1.413   1.667 -0.0625  0.8729  0.7111
  104SOL    HW2  313   1.919   1.410   1.586 -1.0443 -1.8142 -1.0717
  105SOL     OW  314   1.858   0.929   0.095  0.9768 -0.3097  0.3762
  105SOL    HW1  315   1.770   0.899   0.057  1.8604 -0.8645 -1.3502
  105SOL    HW2  316   1.868   0.894   0.188 -0.2197 -1.0581  0.2468
  106SOL     OW  317   2.138   2.077   1.631  0.1765 -0.5216  0.2672
  106SOL    HW1  318   2.072   2.150   1.614  2.6862  1.4955 -1.6030
  106SOL    HW2  319   2.167   2.078   1.726  0.1282  0.9165  0.2801
  107SOL     OW  320   1.564   0.684   1.064  0.2277 -0.1438  0.2262
  107SOL    HW1  321   1.646   0.729   1.098  1.0168 -0.8891 -0.6340
  107SOL    HW2  322   1.573   0.666   0.966  0.1521 -2.5020  0.5849
  108SOL     OW  323   2.192   1.060   0.270 -0.1916  0.5914  0.0415
  108SOL    HW1  324   2.170   0.969   0.306  0.6161  0.3389 -0.0849
  108SOL    HW2  325   2.109   1.102   0.233 -0.1375 -1.1054 -2.1806
  109SOL     OW  326   0.960   0.025   2.167 -0.1929  0.0618  0.4408
  109SOL    HW1  327   1.051   0.034   2.127  0.0129 -2.9205  0.0774
  109SOL    HW2  328   0.911   0.112   2.156  2.5901  1.7998  0.7850
  110SOL     OW  329   1.453   2.169   1.868 -0.0466 -0.3886  0.7471
  110SOL    HW1  330   1.514   2.104   1.915 -0.0677 -2.4502 -1.8532
  110SOL    HW2  331   1.376   2.119   1.827 -1.0414  1.5514  0.1461
  111SOL     OW  332   2.111   0.010   1.013 -0.1028  0.2139 -0.4624
  111SOL    HW1  333   2.162  -0.075   0.994 -1.3329 -1.1317  1.7873
  111SOL    HW2  334   2.176   0.085   1.028  1.0076 -0.1306 -3.0476
  112SOL     OW  335   1.098   1.138   0.490 -0.0207 -0.7987 -0.1098
  112SOL    HW1  336   1.179   1.191   0.464  0.1369 -0.3049  1.2616
  112SOL    HW2  337   1.046   1.114   0.409  0.1324  1.1141 -0.8299
  113SOL     OW  338   1.842   0.838   1.821 -0.3259  0.6682  0.1845
  113SOL    HW1  339   1.803   0.867   1.908 -1.7540 -0.2292 -0.1304
  113SOL    HW2  340   1.935   0.805   1.836 -0.1774  1.4795  1.1866
  114SOL     OW  341   0.458   0.083   2.177 -0.3711  0.3134  0.4762
  114SOL    HW1  342   0.518   0.017   2.222  0.6800  0.3228 -0.8479
  114SOL    HW2  343   0.387   0.035   2.125  1.1767  0.1034 -1.5682
  115SOL     OW  344   0.228   0.882   1.678  0.3552 -0.1256 -0.1077
  115SOL    HW1  345   0.265   0.927   1.597  2.4582  2.7387  2.2215
  115SOL    HW2  346   0.144   0.927   1.707  0.2435 -0.3737 -0.0386
  116SOL     OW  347   0.096   0.908   0.737  0.4536 -0.0333 -0.4918
  116SOL    HW1  348   0.093   0.880   0.642  0.2089 -1.2408 -0.1439
  116SOL    HW2  349   0.190   0.904   0.770  0.2732 -1.7575 -0.0931
  117SOL     OW  350   0.567   1.029   1.610  0.0902 -0.9008  0.1041
  117SOL    HW1  351   0.524   1.091   1.676 -2.3378 -2.6434  0.2819
  117SOL    HW2  352   0.598   0.946   1.657  1.0506 -0.9215 -0.5246
  118SOL     OW  353   0.729   2.238   2.044  0.0139  0.2893  0.1958
  118SOL    HW1  354   0.665   2.203   2.113 -2.6501  4.2481  0.0180
  118SOL    HW2  355   0.800   2.293   2.089 -1.1287  2.0307 -0.0743
  119SOL     OW  356   0.013   1.460   0.239  0.1838 -0.3134  0.4268
  119SOL    HW1  357   0.007   1.372   0.286  0.0676  0.9959  3.0509
  119SOL    HW2  358  -0.073   1.510   0.250  0.8625  0.8694  0.5498
  120SOL     OW  359   1.313   0.895   1.694  0.7557  0.2303  0.3926
  120SOL    HW1  360   1.392   0.936   1.738  1.2913  0.7916 -1.0408
  120SOL    HW2  361   1.334   0.877   1.598 -0.2615 -1.2630  0.4144
  121SOL     OW  362   0.024   1.218   0.399 -0.0765 -0.3768 -0.3998
  121SOL    HW1  363  -0.040   1.156   0.355 -0.2753 -0.2170 -0.3383
  121SOL    HW2  364   0.116   1.202   0.364 -0.3045  0.0703 -1.2078
  122SOL     OW  365   1.759   1.740   1.629 -0.1255 -0.0142 -0.6040
  122SOL    HW1  366   1.843   1.791   1.608  0.2187 -0.1896  0.3123
  122SOL    HW2  367   1.782   1.644   1.642 -0.4419 -0.0324 -0.1764
  123SOL     OW  368   1.832   1.093   1.380  0.6141  0.0279  0.4526
  123SOL    HW1  369   1.775   1.067   1.459 -1.9769  0.8644 -1.0135
  123SOL    HW2  370   1.825   1.022   1.310  0.4042  0.6965 -0.2085
  124SOL     OW  371   1.651   0.398   0.783 -0.0856 -0.0945 -0.3086
  124SOL    HW1  372   1.701   0.349   0.854  1.7734  1.0046 -0.7966
  124SOL    HW2  373   1.579   0.339   0.746 -0.4900 -1.0277  1.7955
  125SOL     OW  374   1.697   0.389   0.502  0.3819 -0.0365 -0.8650
  125SOL    HW1  375   1.711   0.366   0.599 -0.9950 -2.0823 -1.0807
  125SOL    HW2  376   1.733   0.480   0.484  0.5273  0.4749  1.6055
  126SOL     OW  377   0.039   0.448   1.687  0.3410 -0.3451  0.5009
  126SOL    HW1  378   0.093   0.524   1.651 -1.1213  0.5882  0.2020
  126SOL    HW2  379   0.034   0.375   1.620  1.7636 -0.7382  0.7906
  127SOL     OW  380   0.492   1.307   1.034 -0.0938 -0.5609  0.3404
  127SOL    HW1  381   0.499   1.388   1.092  1.7129  0.0764 -0.7020
  127SOL    HW2  382   0.395   1.283   1.022 -0.5812 -0.1286  2.7355
  128SOL     OW  383   0.954   0.830   2.134  0.2743 -0.5965 -0.5356
  128SOL    HW1  384   1.044   0.839   2.177 -0.0803  1.1997 -0.0640
  128SOL    HW2  385   0.928   0.918   2.093 -1.8119 -0.6848  0.4585
  129SOL     OW  386   1.141   1.145   1.372 -0.0332 -0.3795  0.0768
  129SOL    HW1  387   1.232   1.173   1.404  0.3364 -2.0080  0.5253
  129SOL    HW2  388   1.124   1.184   1.282  1.2086 -0.2500 -0.1230
  130SOL     OW  389   0.658   0.443   2.168  0.1065 -0.6333  0.5356
  130SOL    HW1  390   0.712   0.515   2.212  0.5730 -0.9083  0.4160
  130SOL    HW2  391   0.570   0.435   2.214 -0.5518  1.0187 -0.3521
  131SOL     OW  392   1.151   0.730   0.377  0.5833  0.1907  0.2785
  131SOL    HW1  393   1.075   0.717   0.314 -0.5745 -0.4388  1.7464
  131SOL    HW2  394   1.156   0.653   0.440  1.0592  1.2482  1.5969
  132SOL     OW  395   0.394   0.917   1.892  0.1382 -0.8099  0.5439
  132SOL    HW1  396   0.336   0.889   1.816 -0.4884 -0.8150  1.0237
  132SOL    HW2  397   0.397   1.017   1.896 -0.1978 -0.8132  0.8026
  133SOL     OW  398   1.610   1.112   0.948 -0.2566 -0.2423 -0.2412
  133SOL    HW1  399   1.668   1.083   0.871 -1.1842  0.5616 -1.2681
  133SOL    HW2  400   1.520   1.071   0.939 -1.4807  2.4559 -1.4996
  134SOL     OW  401   0.328   0.597   1.280  0.6965 -0.1034 -0.3911
  134SOL    HW1  402   0.268   0.675   1.265 -1.2850 -1.4279  0.1331
  134SOL    HW2  403   0.352   0.591   1.377  1.0243 -0.0319 -0.4656
  135SOL     OW  404   0.230   1.219   1.037 -0.4987 -0.3012  0.3595
  135SOL    HW1  405   0.179   1.232   0.952 -0.2653 -0.3126  0.2162
  135SOL    HW2  406   0.192   1.278   1.109  0.2124  0.7852 -0.1347
  136SOL     OW  407   0.173   1.426   1.189  0.5313  0.4719  0.3176
  136SOL    HW1  408   0.158   1.521   1.160  0.4039  0.3302 -0.0825
  136SOL    HW2  409   0.208   1.425   1.282  2.3574  0.9967 -0.3306
  137SOL     OW  410   1.656   0.702   0.110  0.6317 -0.2738 -0.2287
  137SOL    HW1  411   1.586   0.637   0.139  0.5605 -1.1118 -2.0971
  137SOL    HW2  412   1.672   0.692   0.011  2.6143  0.6365 -0.0582
  138SOL     OW  413   2.000   0.749   1.306 -0.1090  0.1447 -0.0746
  138SOL    HW1  414   2.059   0.830   1.298 -0.7009  0.6422  0.4433
  138SOL    HW2  415   1.962   0.727   1.216 -0.8857  1.1885 -0.0255
  139SOL     OW  416   1.919   2.238   1.623 -0.3657 -0.3505  0.6510
  139SOL    HW1  417   1.891   2.280   1.710 -0.5283 -0.3083  0.5780
  139SOL    HW2  418   1.848   2.176   1.591 -1.1298  1.0028 -0.3701
  140SOL     OW  419   0.024   1.023   1.872  0.0709 -0.4829  0.0077
  140SOL    HW1  420  -0.027   0.978   1.946 -1.9002  1.0755 -0.3302
  140SOL    HW2  421   0.050   1.115   1.900 -0.0162 -0.1509 -0.9792
  141SOL     OW  422   1.940   0.383   0.729  0.1281 -0.1221 -0.1008
  141SOL    HW1  423   1.905   0.394   0.822  2.9031  1.6118  0.8632
  141SOL    HW2  424   1.943   0.472   0.684 -0.1639 -0.7846 -1.4814
  142SOL     OW  425   2.259   1.796   1.791  0.0852  0.2588 -0.1884
  142SOL    HW1  426   2.348   1.820   1.751 -0.3891 -0.5444 -1.8350
  142SOL    HW2  427   2.229   1.708   1.753 -1.2092  0.2974  0.6932
  143SOL     OW  428   1.362   0.866   0.265  0.4491 -0.3442 -0.0682
  143SOL    HW1  429   1.286   0.830   0.319 -0.7489  0.0967 -1.3757
  143SOL    HW2  430   1.333   0.949   0.219  1.8692  0.0444 -0.3090
  144SOL     OW  431   0.928   1.108   0.286 -0.7396 -0.2081 -0.6775
  144SOL    HW1  432   0.900   1.103   0.191 -0.1701 -2.1899 -0.7736
  144SOL    HW2  433   0.855   1.072   0.345  0.2352 -2.3462 -0.6862
  145SOL     OW  434   0.432   0.340   2.276 -0.2500 -0.1475  0.5458
  145SOL    HW1  435   0.365   0.372   2.343 -0.9206  0.3840 -0.3734
  145SOL    HW2  436   0.419   0.242   2.261  0.1370 -0.3543  1.4327
  146SOL     OW  437   0.427   1.968   1.986  0.2292 -0.2649 -0.0800
  146SOL    HW1  438   0.478   2.001   2.066  0.8073  0.4285 -0.7219
  146SOL    HW2  439   0.447   2.026   1.907 -3.0919  1.3772  0.0901
  147SOL     OW  440   1.309   1.074   2.192  0.1571 -0.4656 -0.6826
  147SOL    HW1  441   1.299   1.132   2.110 -3.8682  1.4140  0.8594
  147SOL    HW2  442   1.288   0.979   2.168 -0.7803  0.0210 -1.9233
  148SOL     OW  443   1.565   2.010   0.509  0.1974  0.6549  0.0224
  148SOL    HW1  444   1.592   2.032   0.603  1.4230  0.6515 -0.3162
  148SOL    HW2  445   1.588   1.915   0.488 -2.7948 -0.3194  0.6505
  149SOL     OW  446   1.988   1.207   0.169  0.1514  0.1017  1.0773
  149SOL    HW1  447   1.992   1.290   0.224 -1.3024  0.4601  0.7055
  149SOL    HW2  448   1.893   1.189   0.143  0.6044 -0.9457  0.0339
  150SOL     OW  449   0.879   1.575   0.809 -0.2326  0.4691  0.2735
  150SOL    HW1  450   0.918   1.610   0.724 -2.2849 -0.2736 -1.0489
  150SOL    HW2  451   0.817   1.499   0.788  1.2372 -1.5214  2.7060
  151SOL     OW  452   1.373   1.739   1.066 -0.8066 -0.1597 -0.3657
  151SOL    HW1  453   1.431   1.676   1.014  1.9565  0.8794  1.2046
  151SOL    HW2  454   1.318   1.687   1.132  1.2166 -1.0575  0.7213
  152SOL     OW  455   1.398   0.464   0.916  0.6731 -0.5173 -0.2267
  152SOL    HW1  456   1.417   0.550   0.869 -0.7278  1.5751  2.7070
  152SOL    HW2  457   1.302   0.440   0.903  0.4067 -0.1999  1.0124
  153SOL     OW  458   1.582   0.309   1.075  0.0667 -0.1459 -0.2285
  153SOL    HW1  459   1.560   0.343   1.167  1.6042 -2.0131  0.9120
  153SOL    HW2  460   1.519   0.349   1.009 -1.6445  0.6164  1.7472
  154SOL     OW  461   1.255   2.048   1.729  0.1661  0.4118  0.0078
  154SOL    HW1  462   1.218   2.088   1.645 -0.8889 -0.6278 -0.0542
  154SOL    HW2  463   1.179   2.018   1.788  0.8856  1.1515  1.3541
  155SOL     OW  464   1.531   1.749   0.416 -0.0524 -0.2216 -0.1040
  155SOL    HW1  465   1.523   1.650   0.422 -3.4297 -0.1086 -0.9778
  155SOL    HW2  466   1.470   1.784   0.345  1.2136  2.4998 -0.0007
  156SOL     OW  467   1.237   1.073   0.136 -0.8146  0.2971 -0.6316
  156SOL    HW1  468   1.269   1.064   0.041 -0.4398 -1.4880 -0.3794
  156SOL    HW2  469   1.137   1.071   0.137 -0.8181 -1.4744 -0.8982
  157SOL     OW  470   1.241   1.652   0.510 -0.0612  0.1211  0.6639
  157SOL    HW1  471   1.219   1.724   0.444 -0.1695 -0.9100 -0.4658
  157SOL    HW2  472   1.184   1.572   0.492  1.5890 -1.0521  0.4462
  158SOL     OW  473   1.631   2.057   0.831  0.4400  0.4309  0.1376
  158SOL    HW1  474   1.649   2.155   0.830  1.2664  0.2872 -0.6610
  158SOL    HW2  475   1.705   2.008   0.784  0.3159 -0.6292  1.0018
  159SOL     OW  476   1.798   0.233   2.169 -0.6386 -0.1282  0.1628
  159SOL    HW1  477   1.862   0.309   2.167 -0.6046 -0.1690 -1.8839
  159SOL    HW2  478   1.844   0.149   2.141 -1.2013 -0.4855  0.2697
  160SOL     OW  479   2.093   1.219   1.845  0.2602  0.1174 -0.0433
  160SOL    HW1  480   2.120   1.159   1.769  1.7361 -1.1845  1.4282
  160SOL    HW2  481   2.128   1.311   1.828 -0.3526  0.1147 -1.4210
  161SOL     OW  482   1.385   1.788   0.711  0.3417 -0.6108 -0.0076
  161SOL    HW1  483   1.333   1.743   0.638  2.8833 -3.1418 -0.4332
  161SOL    HW2  484   1.343   1.768   0.799 -0.6538 -0.6672 -0.4770
  162SOL     OW  485   0.686   2.001   0.357  0.1157 -0.2047 -0.1899
  162SOL    HW1  486   0.721   2.095   0.349  0.4899 -0.1412  1.7050
  162SOL    HW2  487   0.694   1.955   0.268  0.6252  1.3066 -0.9710
  163SOL     OW  488   1.694   2.034   1.913 -0.2095  0.6918 -0.0371
  163SOL    HW1  489   1.780   1.987   1.931 -1.3729 -2.1762 -1.3941
  163SOL    HW2  490   1.700   2.083   1.826  0.8349  2.8474  1.1444
  164SOL     OW  491   0.505   0.565   1.610 -0.2377 -0.2512  0.4462
  164SOL    HW1  492   0.574   0.631   1.582 -1.5091  2.0504  2.2977
  164SOL    HW2  493   0.547   0.491   1.662  0.9266  0.6475  0.8061
  165SOL     OW  494   1.696   1.457   0.060 -0.2408 -0.0012  0.3410
  165SOL    HW1  495   1.745   1.372   0.043  0.5201  0.4778  0.0798
  165SOL    HW2  496   1.702   1.481   0.157  0.3112  0.2160  0.2548
  166SOL     OW  497   1.177   0.408   1.326 -0.2501 -0.3024  1.0271
  166SOL    HW1  498   1.091   0.414   1.275 -0.6420 -2.2576  1.3685
  166SOL    HW2  499   1.175   0.472   1.403 -0.8044  0.6705  0.2230
  167SOL     OW  500   1.606   0.808   0.471 -0.0446 -0.1356 -0.0843
  167SOL    HW1  501   1.627   0.841   0.378  0.1596 -2.6007 -0.9780
  167SOL    HW2  502   1.692   0.801   0.522  0.0002 -0.0202 -0.1407
  168SOL     OW  503   0.981   0.640   1.906 -0.1445 -0.1079 -0.0758
  168SOL    HW1  504   0.998   0.680   1.995  0.8020  0.6954 -0.6020
  168SOL    HW2  505   0.889   0.601   1.904 -0.8066  1.3281  0.7261
  169SOL     OW  506   1.634   0.640   2.165  0.4124  0.1022 -0.6158
  169SOL    HW1  507   1.692   0.717   2.137  0.7289 -0.2910 -1.0540
  169SOL    HW2  508   1.664   0.557   2.118 -0.0485 -0.2521 -0.2892
  170SOL     OW  509   2.019   0.536   1.088 -0.0317  0.1241 -0.2848
  170SOL    HW1  510   1.989   0.444   1.059  1.7687 -0.1882 -1.3093
  170SOL    HW2  511   2.073   0.528   1.171  1.2452  0.0622 -1.0990
  171SOL     OW  512   1.564   0.236   1.763 -0.3445  0.1873  0.1317
  171SOL    HW1  513   1.627   0.284   1.702 -0.5086 -0.7048 -0.7633
  171SOL    HW2  514   1.473   0.234   1.721 -0.2356 -1.3119 -0.0870
  172SOL     OW  515   1.322   1.811   1.967 -0.0680 -0.0891  0.3937
  172SOL    HW1  516   1.349   1.879   1.898 -1.5541  0.6703  0.5213
  172SOL    HW2  517   1.312   1.856   2.056  1.0552 -0.9189  0.9694
  173SOL     OW  518   1.062   1.880   1.303 -0.6136  0.5301 -0.1444
  173SOL    HW1  519   1.000   1.910   1.375 -0.1956  2.2088 -0.4331
  173SOL    HW2  520   1.024   1.905   1.214 -0.2409  0.1821 -0.4024
  174SOL     OW  521   1.507   0.165   0.607 -0.0992  0.5014  0.2278
  174SOL    HW1  522   1.411   0.160   0.637 -0.2132  0.6104 -0.1075
  174SOL    HW2  523   1.511   0.153   0.508  0.4434 -1.7787  0.4749
  175SOL     OW  524   1.315   1.636   1.658 -0.4116  0.4953 -0.0210
  175SOL    HW1  525   1.397   1.688   1.684  0.4265 -0.4986 -0.6177
  175SOL    HW2  526   1.294   1.653   1.561 -0.0423 -0.3732 -0.2634
  176SOL     OW  527   2.150   0.800   0.372 -0.7293  0.1924  0.1200
  176SOL    HW1  528   2.134   0.770   0.278  0.3275  1.1479 -0.3866
  176SOL    HW2  529   2.234   0.759   0.406 -0.2150  1.1585  0.0417
  177SOL     OW  530   1.170   0.166   1.793  0.3981  0.1103 -0.1009
  177SOL    HW1  531   1.148   0.262   1.776  0.1151 -0.0021 -0.3894
  177SOL    HW2  532   1.218   0.129   1.713  2.2213  0.5161  0.7535
  178SOL     OW  533   0.806   0.176   0.466 -0.1970  0.2875  0.2278
  178SOL    HW1  534   0.793   0.257   0.408  2.5074  1.6540  1.3295
  178SOL    HW2  535   0.734   0.173   0.535 -0.4378  1.7054  0.0729
  179SOL     OW  536   0.416   2.308   1.212 -0.1447 -0.1923  0.0602
  179SOL    HW1  537   0.446   2.293   1.306  0.0638 -2.3320 -0.3156
  179SOL    HW2  538   0.456   2.240   1.152 -1.2242  0.4009 -1.4010
  180SOL     OW  539   1.771   1.105   0.717  0.3348  0.3317 -0.8667
  180SOL    HW1  540   1.846   1.048   0.684  0.5875 -0.3531  0.8195
  180SOL    HW2  541   1.736   1.161   0.641  3.8052  2.1373 -1.3255
  181SOL     OW  542   1.354   2.074   0.680 -0.4306 -0.0068 -0.4841
  181SOL    HW1  543   1.380   1.978   0.689  0.9620  0.3962 -0.0179
  181SOL    HW2  544   1.354   2.099   0.583 -1.2402 -0.5824 -0.6424
  182SOL     OW  545   0.016   0.673   0.540  0.0824  0.0167  0.7824
  182SOL    HW1  546  -0.051   0.684   0.613 -0.4174 -0.9697  0.4995
  182SOL    HW2  547   0.107   0.697   0.573 -0.4369  1.6636  1.0869
  183SOL     OW  548   0.155   2.064   2.001 -0.0381  0.7083  0.4232
  183SOL    HW1  549   0.077   2.041   2.059 -0.4305 -0.6639 -0.5918
  183SOL    HW2  550   0.229   1.998   2.016 -0.1094  0.3968 -0.5292
  184SOL     OW  551   1.293   2.053   1.258 -0.3802  0.2119  0.0426
  184SOL    HW1  552   1.214   1.992   1.262 -0.3386  0.2057  1.1642
  184SOL    HW2  553   1.338   2.044   1.170  0.2973 -2.2474  0.5788
  185SOL     OW  554   1.488   1.080   0.472  0.0442  0.0232 -0.1735
  185SOL    HW1  555   1.490   0.980   0.475 -0.1369  0.0185 -0.2253
  185SOL    HW2  556   1.582   1.115   0.476  0.4962 -0.2538 -4.1312
  186SOL     OW  557   0.974   0.038   0.660 -0.9178  0.2326 -0.3784
  186SOL    HW1  558   1.060   0.074   0.697 -0.5164 -1.5628  0.5402
  186SOL    HW2  559   0.931   0.107   0.602  1.4360  0.9797 -1.3494
  187SOL     OW  560   2.073   0.158   0.112  0.0713 -0.5255  0.3338
  187SOL    HW1  561   2.006   0.212   0.162 -0.2484  1.7485 -2.3518
  187SOL    HW2  562   2.158   0.210   0.102 -0.4499 -0.1094 -2.8538
  188SOL     OW  563   1.701   0.668   0.788  0.4208 -0.1288  0.5671
  188SOL    HW1  564   1.709   0.568   0.790  0.5253 -0.1289  0.2306
  188SOL    HW2  565   1.609   0.693   0.759  0.7767 -0.1336 -0.6219
  189SOL     OW  566   0.289   0.561   0.812  0.3413 -0.2683 -0.0854
  189SOL    HW1  567   0.355   0.631   0.783 -0.4179  0.3356 -0.4024
  189SOL    HW2  568   0.288   0.486   0.747  1.5241 -0.8248  0.5181
  190SOL     OW  569   1.511   1.817   1.688  0.3669 -0.0250 -0.1672
  190SOL    HW1  570   1.608   1.797   1.674  0.2327  0.3853 -1.8361
  190SOL    HW2  571   1.483   1.894   1.631 -0.6037  0.9123  1.4571
  191SOL     OW  572   0.466   0.725   0.680 -0.6429  0.0766  0.6973
  191SOL    HW1  573   0.443   0.790   0.752 -0.0068  1.7487 -0.5453
  191SOL    HW2  574   0.436   0.760   0.592  1.0723 -0.5580 -0.2024
  192SOL     OW  575   1.008   1.651   2.165  0.2930  0.0214  0.2527
  192SOL    HW1  576   0.968   1.587   2.098 -0.5740  0.1427  0.6354
  192SOL    HW2  577   1.101   1.622   2.187  0.3759 -0.3699 -0.5491
  193SOL     OW  578   0.091   0.275   0.862  0.2294  0.0020 -0.2681
  193SOL    HW1  579   0.181   0.252   0.900  0.9176  0.7167 -1.4349
  193SOL    HW2  580   0.097   0.285   0.763 -1.1022  0.2528 -0.3470
  194SOL     OW  581   1.316   0.087   1.528 -0.4326 -0.3742 -0.4566
  194SOL    HW1  582   1.404   0.062   1.569 -0.7524  0.6972  0.9770
  194SOL    HW2  583   1.327   0.097   1.430  0.6879 -1.7273 -0.5119
  195SOL     OW  584   0.345   1.624   1.953  0.4717 -0.4343 -0.2339
  195SOL    HW1  585   0.390   1.681   2.022 -2.1360  1.3179  0.1949
  195SOL    HW2  586   0.262   1.585   1.992  0.1121 -1.2483 -1.7496
  196SOL     OW  587   0.688   1.394   2.017 -0.3735 -0.1797  0.8667
  196SOL    HW1  588   0.761   1.453   1.982 -0.0804 -0.8326  0.3652
  196SOL    HW2  589   0.701   1.301   1.984 -1.5010 -0.2845  0.6765
  197SOL     OW  590   1.147   0.550   0.571  0.4173  0.0859  0.3505
  197SOL    HW1  591   1.137   0.539   0.670  1.9464  2.2189  0.8191
  197SOL    HW2  592   1.163   0.461   0.528 -2.6773 -1.2455  1.6154
  198SOL     OW  593   0.515   0.243   1.244 -0.4064  0.3470 -0.4029
  198SOL    HW1  594   0.469   0.156   1.226  1.6677 -0.3652 -2.8880
  198SOL    HW2  595   0.460   0.317   1.206  0.1163 -0.4429 -2.9339
  199SOL     OW  596   1.221   1.128   1.915 -0.1133  0.4497  0.6049
  199SOL    HW1  597   1.172   1.166   1.837  1.7612  1.8276  0.0196
  199SOL    HW2  598   1.291   1.064   1.883 -0.9743 -0.9308  1.3710
  200SOL     OW  599   2.082   0.013   1.441  0.0255  0.1421  0.0248
  200SOL    HW1  600   2.019  -0.033   1.503 -0.8711  1.5068  0.1526
  200SOL    HW2  601   2.031   0.067   1.374  0.9496 -1.3422 -2.0054
  201SOL     OW  602   1.717   2.090   1.480  0.0341  0.2305  0.0347
  201SOL    HW1  603   1.740   2.071   1.385 -0.2401 -0.9242  0.1872
  201SOL    HW2  604   1.620   2.073   1.496  0.2365 -0.3549  0.7053
  202SOL     OW  605   2.142   0.819   0.705  0.3450  0.3783 -0.0378
  202SOL    HW1  606   2.182   0.877   0.776 -0.3824  0.0697  0.6324
  202SOL    HW2  607   2.131   0.726   0.740 -0.6556  0.3843 -0.3124
  203SOL     OW  608   1.878   2.158   0.294 -0.1712 -0.3729 -0.7153
  203SOL    HW1  609   1.855   2.255   0.305  0.5250 -0.2937  0.1375
  203SOL    HW2  610   1.893   2.117   0.384 -0.5101 -1.2927 -1.0700
  204SOL     OW  611   0.045   0.404   2.158  0.4696 -0.2690 -0.1787
  204SOL    HW1  612  -0.051   0.374   2.163  0.3842  0.0479  0.1322
  204SOL    HW2  613   0.071   0.415   2.062 -0.1782  0.8059 -0.2438
  205SOL     OW  614   0.652   1.766   0.071 -0.5730 -0.5173 -0.8239
  205SOL    HW1  615   0.633   1.750  -0.026 -0.5388  0.4949 -1.0097
  205SOL    HW2  616   0.567   1.764   0.123 -0.8882  1.1554 -1.2244
  206SOL     OW  617   0.874   1.347   0.416 -0.0090 -0.1446  0.1730
  206SOL    HW1  618   0.896   1.273   0.353  2.3569  0.4322  0.2364
  206SOL    HW2  619   0.925   1.429   0.390 -1.4117  1.0552  1.0101
  207SOL     OW  620   0.511   1.465   2.225 -0.0486  0.6061  0.1891
  207SOL    HW1  621   0.582   1.426   2.283 -0.0769 -0.1360 -0.2655
  207SOL    HW2  622   0.547   1.477   2.132 -0.2669  0.9858  0.1521
  208SOL     OW  623   0.875   1.601   0.114  0.1256 -0.3922 -0.1960
  208SOL    HW1  624   0.908   1.614   0.020 -1.4468 -1.6721 -0.9850
  208SOL    HW2  625   0.789   1.651   0.125  0.5780  0.2008  0.7667
  209SOL     OW  626   0.848   2.261   0.903 -0.1604  0.3676 -0.3911
  209SOL    HW1  627   0.841   2.352   0.943 -0.9605  0.1809 -0.0767
  209SOL    HW2  628   0.933   2.253   0.851 -0.5267  1.6201 -1.2251
  210SOL     OW  629   2.021   2.030   2.192  0.1179  0.5833 -0.1130
  210SOL    HW1  630   2.002   2.111   2.247 -2.3704  1.3752 -1.9613
  210SOL    HW2  631   2.098   2.048   2.131  0.8383  0.8119  0.8362
  211SOL     OW  632   0.086   0.684   0.097 -0.2847  0.2332  0.2142
  211SOL    HW1  633   0.098   0.781   0.119 -1.7844 -0.1029  2.9428
  211SOL    HW2  634  -0.011   0.665   0.086  0.1156 -0.6308 -2.3962
  212SOL     OW  635   1.237   0.885   1.416 -0.0099  0.0281  0.9499
  212SOL    HW1  636   1.200   0.977   1.403 -2.1279 -0.7960  0.8609
  212SOL    HW2  637   1.172   0.829   1.467  1.2056 -1.4502  0.9556
  213SOL     OW  638   0.294   0.332   0.662  0.8882  0.2802 -0.2869
  213SOL    HW1  639   0.343   0.313   0.577 -0.8429 -0.6038 -1.1387
  213SOL    HW2  640   0.324   0.268   0.733  0.0782 -1.1400 -1.1743
  214SOL     OW  641   0.769   0.416   0.340  0.0846  0.4968  0.1788
  214SOL    HW1  642   0.795   0.373   0.253 -0.4231  0.1164  0.2070
  214SOL    HW2  643   0.702   0.488   0.322  1.3915  1.7130  0.0688
  215SOL     OW  644   2.207   1.357   2.063 -0.0325 -0.4111  0.1556
  215SOL    HW1  645   2.133   1.304   2.021 -1.4747  1.1256  0.6679
  215SOL    HW2  646   2.213   1.447   2.019  1.5386 -0.4916  0.1494
  216SOL     OW  647   0.690   0.496   0.690 -0.1796  0.1625  0.1664
  216SOL    HW1  648   0.758   0.514   0.619 -1.5470 -0.7969 -1.4487
  216SOL    HW2  649   0.599   0.517   0.656 -0.8089  0.5106  1.9612
  217SOL     OW  650   1.328   2.293   0.870 -0.6568 -0.4598  0.1813
  217SOL    HW1  651   1.401   2.294   0.938 -0.7623 -2.0765  0.3574
  217SOL    HW2  652   1.346   2.220   0.803 -1.0959  0.4140 -0.9332
  218SOL     OW  653   1.066   0.078   0.230  0.1699 -0.3692  0.6540
  218SOL    HW1  654   1.166   0.083   0.234  0.1631  0.4689  0.0132
  218SOL    HW2  655   1.038   0.003   0.171  0.4303 -0.1122  0.2025
  219SOL     OW  656   0.340   1.290   2.063  0.2821  0.2999 -0.0280
  219SOL    HW1  657   0.372   1.363   2.123  0.1298 -0.3896  0.9023
  219SOL    HW2  658   0.261   1.244   2.104  2.1392 -2.3251  0.8824
  220SOL     OW  659   0.716   0.039   0.031 -0.1232  0.2631  0.3262
  220SOL    HW1  660   0.747   0.134   0.030  2.1532 -0.4111 -0.3634
  220SOL    HW2  661   0.785  -0.018   0.077 -1.9911 -0.9277  1.8052
  221SOL     OW  662   1.304   1.228   0.355  0.2847 -0.4852 -0.1685
  221SOL    HW1  663   1.382   1.187   0.401  0.2174  0.1826  0.5725
  221SOL    HW2  664   1.272   1.168   0.282 -0.7315 -2.4698  1.8088
  222SOL     OW  665   0.591   2.238   1.446 -0.4529 -0.1121 -0.4464
  222SOL    HW1  666   0.600   2.138   1.439  2.2775 -0.1428  1.6772
  222SOL    HW2  667   0.661   2.281   1.389 -0.7166  0.5461 -0.2815
  223SOL     OW  668   0.832   1.982   0.049  0.1805  0.2548  0.4499
  223SOL    HW1  669   0.875   1.973  -0.041  0.7854  0.4923  0.7124
  223SOL    HW2  670   0.769   1.905   0.064 -2.1942  1.7054 -1.3895
  224SOL     OW  671   2.188   0.065   0.581  0.5361 -0.5671  0.2337
  224SOL    HW1  672   2.232  -0.018   0.615 -0.8433 -0.7173  1.7617
  224SOL    HW2  673   2.251   0.143   0.590  1.1259 -1.0839  0.6804
  225SOL     OW  674   2.197   1.159   2.281  0.2653 -1.0107 -0.3370
  225SOL    HW1  675   2.120   1.198   2.333  1.1183 -0.2196  0.3706
  225SOL    HW2  676   2.218   1.219   2.204 -0.3028 -1.6216 -0.9758
  226SOL     OW  677   0.551   0.703   2.304 -0.1114  0.6374 -0.4792
  226SOL    HW1  678   0.539   0.717   2.205  1.3729  1.8840 -0.5199
  226SOL    HW2  679   0.644   0.670   2.322 -1.2068 -2.2556  0.3119
  227SOL     OW  680   0.685   1.065   0.429  0.4038 -0.1727 -0.0286
  227SOL    HW1  681   0.624   1.064   0.350  1.6033 -2.7686 -1.0419
  227SOL    HW2  682   0.636   1.100   0.509 -1.5518  0.3402 -1.3883
  228SOL     OW  683   2.167   0.545   0.834  0.2261 -1.0977 -0.0387
  228SOL    HW1  684   2.136   0.451   0.824 -1.4418 -0.5754 -0.0727
  228SOL    HW2  685   2.120   0.588   0.911  0.9497 -0.2706 -0.0380
  229SOL     OW  686   0.588   0.595   0.225  0.0567 -0.1581 -0.0309
  229SOL    HW1  687   0.567   0.628   0.133  2.8411  0.6159 -0.4811
  229SOL    HW2  688   0.597   0.673   0.287  3.2810 -0.1675 -0.3294
  230SOL     OW  689   2.108   0.902   2.292  0.0391 -1.0711  0.3252
  230SOL    HW1  690   2.161   0.987   2.297  1.7600 -2.1560  2.6999
  230SOL    HW2  691   2.014   0.920   2.319  0.4750  0.0250  1.2133
  231SOL     OW  692   0.797   0.634   2.304 -0.1839 -0.1337 -0.2032
  231SOL    HW1  693   0.825   0.715   2.251 -1.9208 -0.5873 -1.9146
  231SOL    HW2  694   0.875   0.572   2.313  0.8332  1.1156  0.0370
  232SOL     OW  695   2.080   1.321   1.460  0.0996  1.1224 -0.0275
  232SOL    HW1  696   2.040   1.238   1.422  2.5767  0.3713 -1.2192
  232SOL    HW2  697   2.130   1.370   1.388  0.4347  2.5429  1.1151
  233SOL     OW  698   1.147   1.548   1.160 -0.7237  0.6936 -0.3456
  233SOL    HW1  699   1.065   1.597   1.131 -1.5818  0.0287  0.8552
  233SOL    HW2  700   1.143   1.454   1.127  0.1669  0.9905 -1.3300
  234SOL     OW  701   2.155   2.065   1.027 -0.1835  0.0586 -0.1894
  234SOL    HW1  702   2.124   1.983   0.979 -1.7640  0.1863  0.5445
  234SOL    HW2  703   2.253   2.079   1.010  0.7472 -3.2871  1.5230
  235SOL     OW  704   2.327   0.091   1.370  0.3246  0.2708 -0.1491
  235SOL    HW1  705   2.239   0.056   1.402  0.5961  0.4284  0.7895
  235SOL    HW2  706   2.312   0.153   1.294 -0.5086  1.4219  0.9179
  236SOL     OW  707   1.977   0.153   1.233 -0.1385  0.6979 -0.0923
  236SOL    HW1  708   2.040   0.151   1.155 -2.6142  1.7928 -2.2958
  236SOL    HW2  709   1.948   0.247   1.249 -1.8926  0.1442  0.1962
  237SOL     OW  710   0.308   0.518   2.092 -0.0920  0.1308 -0.2188
  237SOL    HW1  711   0.298   0.448   2.022 -1.9033  0.8660 -0.7621
  237SOL    HW2  712   0.332   0.476   2.179 -2.5360 -1.3684 -0.1826
  238SOL     OW  713   2.234   1.629   1.545 -0.2967 -0.6125  0.1191
  238SOL    HW1  714   2.254   1.725   1.524 -1.6016 -0.5165 -0.8012
  238SOL    HW2  715   2.231   1.576   1.460 -0.0384 -1.3974  0.5833
  239SOL     OW  716   0.744   1.116   1.956  0.4892 -0.4971  0.8781
  239SOL    HW1  717   0.677   1.099   2.028 -2.3981  0.9762 -1.2447
  239SOL    HW2  718   0.730   1.052   1.881 -0.1867  1.2771 -0.5876
  240SOL     OW  719   2.145   0.225   2.143  0.0295 -0.4235  0.3139
  240SOL    HW1  720   2.103   0.198   2.230 -0.1155  0.6275  0.5822
  240SOL    HW2  721   2.161   0.144   2.087 -2.7471 -0.8646  0.0305
  241SOL     OW  722   1.127   1.634   1.847 -0.1075  0.0844  0.0908
  241SOL    HW1  723   1.183   1.615   1.766  0.5081 -1.0473  0.7464
  241SOL    HW2  724   1.185   1.664   1.922 -0.3828 -0.8734  0.7124
  242SOL     OW  725   1.558   0.309   2.021  0.4139  0.0501  0.2650
  242SOL    HW1  726   1.657   0.304   2.035  0.5284  0.0125 -0.5423
  242SOL    HW2  727   1.537   0.298   1.924 -0.3338  0.7176  0.3399
  243SOL     OW  728   1.466   1.306   1.825 -0.1995 -0.0570 -0.2785
  243SOL    HW1  729   1.491   1.384   1.882  0.3072 -0.0820 -0.4604
  243SOL    HW2  730   1.392   1.332   1.763 -1.2104 -0.2068  0.8129
  244SOL     OW  731   0.496   0.712   2.058 -0.2321 -0.3130  0.3797
  244SOL    HW1  732   0.459   0.785   2.000  2.1798  0.1236 -0.7443
  244SOL    HW2  733   0.423   0.650   2.084 -1.9206  1.1120 -0.7268
  245SOL     OW  734   1.881   0.867   0.380 -0.4767  0.5575 -0.1466
  245SOL    HW1  735   1.974   0.832   0.383 -1.1661 -1.4776 -0.7273
  245SOL    HW2  736   1.869   0.938   0.450  0.8332 -0.8571  1.6029
  246SOL     OW  737   0.316   2.078   2.328 -0.5684  0.2656  0.2646
  246SOL    HW1  738   0.274   2.005   2.382 -1.5265 -0.3912 -1.2741
  246SOL    HW2  739   0.267   2.164   2.344 -0.2099  0.3096  1.1656
  247SOL     OW  740   1.939   0.630   0.633 -0.7210 -0.7202 -0.4413
  247SOL    HW1  741   1.968   0.689   0.558 -1.2338 -0.9117 -0.8018
  247SOL    HW2  742   1.890   0.685   0.701 -1.8264 -0.8229 -1.1203
  248SOL     OW  743   0.935   1.970   1.522 -0.1574 -0.8862  0.1339
  248SOL    HW1  744   0.972   2.063   1.526  2.3285 -1.7249 -1.4438
  248SOL    HW2  745   0.956   1.922   1.608 -2.0624  0.1353  1.2459
  249SOL     OW  746   0.395   0.947   2.324  0.1353 -0.0678  0.2143
  249SOL    HW1  747   0.421   0.853   2.347 -0.0467 -0.3783 -0.8092
  249SOL    HW2  748   0.295   0.954   2.322  0.1487  0.1239  0.2010
  250SOL     OW  749   2.110   1.804   1.203  0.6750  0.2758 -0.6270
  250SOL    HW1  750   2.019   1.841   1.217  0.3567 -1.4751  3.2720
  250SOL    HW2  751   2.179   1.875   1.218  0.0102  1.1055 -1.4608
  251SOL     OW  752   1.884   2.140   0.581 -0.2851  0.1723  0.0228
  251SOL    HW1  753   1.849   2.076   0.649  0.4036  0.3278  0.5336
  251SOL    HW2  754   1.889   2.232   0.621  0.9785  0.1020  0.0729
  252SOL     OW  755   0.618   1.738   2.087 -0.3345 -0.4320 -0.2087
  252SOL    HW1  756   0.663   1.671   2.029  0.0077 -2.4627  2.2249
  252SOL    HW2  757   0.628   1.829   2.047  2.1337 -1.3642 -1.9491
  253SOL     OW  758   1.755   0.538   1.909  0.2691 -0.6519 -0.0924
  253SOL    HW1  759   1.709   0.555   1.822 -0.8753 -1.5369  0.3105
  253SOL    HW2  760   1.835   0.596   1.917 -0.1912  0.1687 -1.2927
  254SOL     OW  761   1.728   0.645   1.653 -0.2426 -0.2060 -0.2142
  254SOL    HW1  762   1.741   0.708   1.730 -0.3870 -0.6043  0.1345
  254SOL    HW2  763   1.814   0.635   1.604 -0.5464  1.4374 -1.1842
  255SOL     OW  764   0.456   1.531   1.274  0.1411  0.3792 -0.1492
  255SOL    HW1  765   0.446   1.602   1.205  1.7192  0.7587 -0.0337
  255SOL    HW2  766   0.553   1.507   1.284 -0.3055 -1.5268  0.0999
  256SOL     OW  767   1.863   0.296   0.994  0.3090  0.3273 -0.4302
  256SOL    HW1  768   1.787   0.324   1.054  1.2403 -0.3486  1.1283
  256SOL    HW2  769   1.896   0.206   1.022  2.7345  1.2945  0.0085
  257SOL     OW  770   2.171   0.969   1.317 -0.6611 -0.3070 -0.5906
  257SOL    HW1  771   2.134   1.020   1.239 -2.2833 -1.5803 -0.7193
  257SOL    HW2  772   2.146   1.014   1.402  0.7321  0.8444 -0.7571
  258SOL     OW  773   0.128   1.423   1.580  0.0439 -0.0403 -0.9920
  258SOL    HW1  774   0.203   1.485   1.605 -0.0621 -0.5222  0.6805
  258SOL    HW2  775   0.055   1.431   1.648  0.1168 -2.1080 -0.5998
  259SOL     OW  776   0.993   2.197   0.076  0.2008  0.4119  0.4166
  259SOL    HW1  777   0.941   2.112   0.084  0.0678  0.5371  0.8992
  259SOL    HW2  778   0.983   2.233  -0.017  0.6520 -0.3462  0.0675
  260SOL     OW  779   1.891   0.540   0.098  0.2467 -0.5841  0.3368
  260SOL    HW1  780   1.915   0.527   0.002 -0.7720 -0.7030  0.0804
  260SOL    HW2  781   1.828   0.618   0.107  0.7963 -0.2021  0.9838
  261SOL     OW  782   0.961   1.941   2.178  0.1500 -0.3997 -0.1982
  261SOL    HW1  783   0.997   2.024   2.134  0.0908  0.7144  1.7343
  261SOL    HW2  784   1.021   1.864   2.158  1.2006  0.4924 -0.5860
  262SOL     OW  785   0.259   0.981   0.337  0.3415  0.2574  0.5969
  262SOL    HW1  786   0.202   0.977   0.254 -1.5783  2.0441  1.7285
  262SOL    HW2  787   0.305   1.069   0.341  0.9944 -0.1028  1.0827
  263SOL     OW  788   1.871   2.245   0.908  0.3808  0.3592 -0.1950
  263SOL    HW1  789   1.876   2.302   0.826 -0.8284  3.0696  1.4681
  263SOL    HW2  790   1.938   2.277   0.974 -0.8572  0.4063  1.0832
  264SOL     OW  791   2.281   2.045   0.360 -0.2751  0.2029 -0.3315
  264SOL    HW1  792   2.251   2.137   0.332 -0.8054  0.2627  0.3772
  264SOL    HW2  793   2.321   2.050   0.451 -1.2696 -0.4202  0.1590
  265SOL     OW  794   0.941   0.795   1.302 -0.3245  0.2406 -0.0509
  265SOL    HW1  795   1.001   0.807   1.223  0.6966 -1.3689  0.4261
  265SOL    HW2  796   0.883   0.875   1.313  3.2750  2.9770  0.7717
  266SOL     OW  797   2.027   1.945   0.443 -0.1523 -0.2193 -0.1567
  266SOL    HW1  798   2.118   1.971   0.411  1.1027 -2.3139  1.4567
  266SOL    HW2  799   1.995   2.012   0.510 -0.8409  1.7124 -2.2839
  267SOL     OW  800   1.703   1.240   0.477  0.1781 -0.2160 -0.0646
  267SOL    HW1  801   1.634   1.311   0.481 -1.1337 -1.4045 -0.7402
  267SOL    HW2  802   1.777   1.269   0.416  0.3241  1.0841  0.6995
  268SOL     OW  803   2.148   1.538   1.241  0.1154  0.1033 -0.2454
  268SOL    HW1  804   2.073   1.495   1.192 -0.3605  0.3460  0.2615
  268SOL    HW2  805   2.134   1.637   1.244 -0.0197  0.0627  0.6396
  269SOL     OW  806   0.110   2.290   0.097  0.0931  0.1877  0.0566
  269SOL    HW1  807   0.133   2.377   0.053  0.9695 -0.2931 -0.4769
  269SOL    HW2  808   0.153   2.286   0.187  0.5603  0.0733 -0.1653
  270SOL     OW  809   0.415   2.017   1.082 -0.6451 -0.0181  0.5162
  270SOL    HW1  810   0.512   2.041   1.082 -0.9208  1.1939  0.2949
  270SOL    HW2  811   0.402   1.931   1.034  0.2228  0.2703 -0.2663
  271SOL     OW  812   1.875   0.345   1.659 -0.8595  0.0775  0.4173
  271SOL    HW1  813   1.788   0.340   1.610 -0.6710  0.4352  0.0407
  271SOL    HW2  814   1.886   0.437   1.697 -0.1674  0.3595 -0.4359
  272SOL     OW  815   1.229   0.076   2.074 -0.1741 -0.1548  0.0347
  272SOL    HW1  816   1.210   0.147   2.006 -1.3141 -2.2518 -1.9780
  272SOL    HW2  817   1.328   0.059   2.079  0.0308  0.9649 -0.0786
  273SOL     OW  818   1.556   1.338   1.053 -0.2338  0.5556 -0.0721
  273SOL    HW1  819   1.593   1.332   1.146  0.2178 -0.0603 -0.2875
  273SOL    HW2  820   1.586   1.259   1.000 -0.3876  0.9695 -0.7831
  274SOL     OW  821   2.121   0.110   1.782 -0.5429 -0.2461  0.5755
  274SOL    HW1  822   2.028   0.076   1.769  0.1390 -1.3848 -2.2182
  274SOL    HW2  823   2.142   0.178   1.711  1.4341 -1.7098 -0.3507
  275SOL     OW  824   1.293   2.167   0.114  0.0194  0.5077  0.3921
  275SOL    HW1  825   1.210   2.117   0.086  0.3463 -0.0434  0.3949
  275SOL    HW2  826   1.354   2.176   0.036  0.2846  0.2543  0.5683
  276SOL     OW  827   1.443   0.741   0.765  0.1775  0.2119  0.1580
  276SOL    HW1  828   1.393   0.806   0.822  1.4829  0.8193  0.6440
  276SOL    HW2  829   1.413   0.751   0.670 -0.0417  1.1198  0.3117
  277SOL     OW  830   0.175   1.399   2.332  0.0751  0.2254  0.1306
  277SOL    HW1  831   0.221   1.486   2.315  0.0179  0.3592  0.6538
  277SOL    HW2  832   0.100   1.413   2.397 -0.1747 -0.1442 -0.0738
  278SOL     OW  833   0.454   1.341   1.596 -0.0582  0.3111 -0.3129
  278SOL    HW1  834   0.387   1.328   1.522  0.7282  0.8072 -1.1382
  278SOL    HW2  835   0.546   1.330   1.560  0.3253 -2.4195  1.2374
  279SOL     OW  836   0.795   0.171   1.016 -0.7072  0.3735 -0.6764
  279SOL    HW1  837   0.743   0.234   0.958  2.6392  1.4876 -2.7649
  279SOL    HW2  838   0.865   0.222   1.067 -0.0427 -1.2663  0.1414
  280SOL     OW  839   0.898   1.094   0.014  0.3544  0.2040 -0.2553
  280SOL    HW1  840   0.950   1.126  -0.065  0.5639  0.3364 -0.0630
  280SOL    HW2  841   0.800   1.093  -0.009  0.4329  0.0361 -0.5845
  281SOL     OW  842   0.163   0.168   1.553 -0.0002  0.3570 -0.0118
  281SOL    HW1  843   0.263   0.156   1.547 -0.0166  0.1296  0.1698
  281SOL    HW2  844   0.122   0.141   1.465  0.0311 -0.2693  0.1582
  282SOL     OW  845   1.634   0.045   0.813 -0.2161  0.3924 -0.4459
  282SOL    HW1  846   1.593   0.086   0.732  0.7814  2.3935 -0.0036
  282SOL    HW2  847   1.730   0.074   0.820 -0.1930 -0.0045  1.2695
  283SOL     OW  848   1.130   0.287   0.446  0.1629 -0.1389  0.0899
  283SOL    HW1  849   1.109   0.227   0.368 -0.6194 -0.6257  0.6563
  283SOL    HW2  850   1.153   0.230   0.526  0.4383  0.3473  0.3606
  284SOL     OW  851   0.757   0.204   2.105  0.3739  0.9364 -0.0801
  284SOL    HW1  852   0.741   0.303   2.109  0.5685  1.0135 -1.0275
  284SOL    HW2  853   0.675   0.156   2.139 -0.1730  1.4094 -0.6967
  285SOL     OW  854   1.870   1.300   0.907  0.1397 -0.1611  0.0227
  285SOL    HW1  855   1.839   1.213   0.868 -3.1936  1.7103 -2.0387
  285SOL    HW2  856   1.869   1.370   0.836 -0.4223  2.2175  2.2283
  286SOL     OW  857   1.712   1.246   1.712 -0.1640  0.2510 -0.1878
  286SOL    HW1  858   1.647   1.280   1.780 -0.4759  1.0801 -0.8888
  286SOL    HW2  859   1.680   1.158   1.676 -0.8406  0.5967 -0.4451
  287SOL     OW  860   0.549   1.110   2.161  0.4727  0.6835  0.3571
  287SOL    HW1  861   0.517   1.201   2.135  1.1758  0.8574  0.0788
  287SOL    HW2  862   0.472   1.055   2.193 -0.0779  1.1300 -0.1816
  288SOL     OW  863   0.854   0.319   1.232  0.3663  0.1052 -0.4939
  288SOL    HW1  864   0.757   0.335   1.213 -0.1876 -0.2342  1.7685
  288SOL    HW2  865   0.872   0.339   1.329  2.0900 -1.9036 -0.3512
  289SOL     OW  866   0.904   0.534   0.902 -0.3554 -0.2637 -0.6769
  289SOL    HW1  867   0.924   0.625   0.866 -1.0362  0.2820  0.3040
  289SOL    HW2  868   0.817   0.502   0.865  1.1571 -1.7689 -3.2950
  290SOL     OW  869   0.903   1.690   1.060 -0.3150 -0.0105  0.3872
  290SOL    HW1  870   0.910   1.636   0.976 -1.6427  0.7288 -0.2365
  290SOL    HW2  871   0.813   1.678   1.100  0.2161 -0.1421  1.5916
  291SOL     OW  872   0.138   0.065   1.798  0.1701  0.3637 -0.4588
  291SOL    HW1  873   0.138   0.101   1.705  0.1020 -1.3937 -1.1764
  291SOL    HW2  874   0.047   0.027   1.818  0.2236  0.6237  0.2849
  292SOL     OW  875   0.923   1.008   0.638 -0.0281 -0.1842  0.6444
  292SOL    HW1  876   0.980   1.065   0.579 -2.0145 -1.4233 -2.7194
  292SOL    HW2  877   0.864   1.067   0.694 -2.1943  1.3150 -2.8726
  293SOL     OW  878   0.827   1.265   0.758  0.7023  0.2876 -0.0746
  293SOL    HW1  879   0.878   1.262   0.844  1.5144 -1.0604 -0.5580
  293SOL    HW2  880   0.890   1.248   0.682 -0.2160  0.1430 -0.8169
  294SOL     OW  881   0.660   2.134   1.093 -0.5741  0.5750  0.2740
  294SOL    HW1  882   0.704   2.178   1.015 -0.0864 -0.6235 -0.1526
  294SOL    HW2  883   0.730   2.101   1.157 -0.9533  1.0574  0.9577
  295SOL     OW  884   1.961   0.483   2.171  0.3435 -0.3770 -0.3638
  295SOL    HW1  885   2.061   0.484   2.164  0.5666  3.4302  0.9042
  295SOL    HW2  886   1.922   0.524   2.089  0.1331  1.3434  0.5394
  296SOL     OW  887   2.141   1.550   0.802  0.3285 -0.2597  0.3341
  296SOL    HW1  888   2.140   1.454   0.832  2.7631  0.1314  1.9258
  296SOL    HW2  889   2.127   1.609   0.881  1.7011  0.7222 -0.1175
  297SOL     OW  890   1.911   1.155   2.061 -0.9807  0.3651  0.4889
  297SOL    HW1  891   1.975   1.126   1.989 -1.7640  0.9423 -0.4700
  297SOL    HW2  892   1.886   1.251   2.047 -1.3595  0.4076  1.3801
  298SOL     OW  893   0.019   0.296   0.583  0.2479 -0.0127 -0.2405
  298SOL    HW1  894   0.119   0.294   0.572  0.1337  1.0256 -2.0005
  298SOL    HW2  895  -0.014   0.388   0.563 -1.0756 -0.3611  0.2663
  299SOL     OW  896   0.327   1.663   2.266 -0.1599  0.3736 -0.1708
  299SOL    HW1  897   0.404   1.604   2.240 -0.5102  0.4553 -1.4518
  299SOL    HW2  898   0.339   1.693   2.360  2.4393  2.0151 -0.9158
  300SOL     OW  899   1.624   1.744   1.386  0.0506 -0.5647 -0.2633
  300SOL    HW1  900   1.530   1.779   1.382 -0.0614 -0.9410 -1.2689
  300SOL    HW2  901   1.655   1.742   1.481 -0.5838  0.5324 -0.0196
  301SOL     OW  902   0.025   1.877   0.590  0.2099 -0.5381  0.1769
  301SOL    HW1  903   0.096   1.937   0.553  1.1392 -1.1443  0.9196
  301SOL    HW2  904   0.061   1.830   0.671 -1.0363 -0.8908  0.5351
  302SOL     OW  905   1.711   2.076   1.186  0.3401 -0.0862 -0.3479
  302SOL    HW1  906   1.648   2.116   1.120 -0.5567  1.0211  1.1213
  302SOL    HW2  907   1.802   2.117   1.174 -0.1991  1.3213  0.1174
  303SOL     OW  908   0.403   1.610   1.697  0.8746 -0.4125 -0.1412
  303SOL    HW1  909   0.381   1.623   1.793 -0.5561 -1.9692 -0.2119
  303SOL    HW2  910   0.421   1.513   1.680 -0.7638 -0.4712 -1.7870
  304SOL     OW  911   1.218   0.964   0.707 -0.4887  0.2195  0.0824
  304SOL    HW1  912   1.138   1.003   0.662 -0.2925 -1.0942 -1.4980
  304SOL    HW2  913   1.296   0.968   0.645  0.0835 -0.6285  0.7357
  305SOL     OW  914   0.164   1.919   0.171 -0.0542 -0.4026 -0.0072
  305SOL    HW1  915   0.164   1.989   0.243  1.4561 -1.8314  1.4892
  305SOL    HW2  916   0.071   1.904   0.139 -1.0323 -0.6189  2.6205
  306SOL     OW  917   1.464   0.404   1.326  0.6656 -0.0077 -0.1148
  306SOL    HW1  918   1.469   0.497   1.363 -0.0662  0.5876 -1.4406
  306SOL    HW2  919   1.369   0.379   1.310  0.7570 -1.4645  1.2987
  307SOL     OW  920   0.580   0.783   1.315  0.1945  0.5152 -0.1102
  307SOL    HW1  921   0.486   0.761   1.291  0.2626  0.5015 -0.3636
  307SOL    HW2  922   0.641   0.710   1.285  0.2327  0.2939  0.4862
  308SOL     OW  923   1.980   1.021   0.588  0.1650 -0.2661 -0.1671
  308SOL    HW1  924   2.040   0.952   0.629  0.7444  0.7003  0.6864
  308SOL    HW2  925   2.030   1.107   0.579 -0.6767  0.1752 -0.7800
  309SOL     OW  926   1.850   1.524   0.740 -0.2973  0.0043 -0.0065
  309SOL    HW1  927   1.942   1.563   0.732 -0.7252  0.6799 -2.3183
  309SOL    HW2  928   1.782   1.595   0.719 -1.3852 -0.5344  1.4829
  310SOL     OW  929   2.073   0.377   0.458 -0.3366  0.3858  0.2218
  310SOL    HW1  930   2.001   0.363   0.390  0.4758  1.0457 -0.8070
  310SOL    HW2  931   2.041   0.346   0.548 -1.4732 -0.3884 -0.4301
  311SOL     OW  932   1.980   1.631   1.860 -0.6965  0.1207 -0.1228
  311SOL    HW1  933   1.966   1.701   1.789 -3.2057 -0.2755 -0.1123
  311SOL    HW2  934   1.961   1.671   1.949 -0.3349 -0.1167  0.0606
  312SOL     OW  935   0.815   0.723   1.542  0.3274  0.0293 -0.2425
  312SOL    HW1  936   0.885   0.734   1.613 -0.5923  0.7690  0.5728
  312SOL    HW2  937   0.836   0.783   1.465 -1.2618  3.0380  1.5003
  313SOL     OW  938   1.006   1.874   1.800 -0.5964 -0.1643 -0.1789
  313SOL    HW1  939   0.923   1.879   1.856 -0.8865 -0.0308 -0.6171
  313SOL    HW2  940   1.045   1.782   1.806 -0.6169 -0.1466  0.2534
  314SOL     OW  941   1.114   0.108   0.979  0.2037 -0.4598  0.1773
  314SOL    HW1  942   1.192   0.046   0.971 -0.5654 -1.6124  1.2326
  314SOL    HW2  943   1.052   0.074   1.049 -0.2112  1.5737  0.8431
  315SOL     OW  944   0.112   2.292   0.818 -0.1867  0.2596 -0.7469
  315SOL    HW1  945   0.204   2.266   0.849 -1.0807 -1.9525  0.1970
  315SOL    HW2  946   0.105   2.392   0.816  2.2975  0.4953 -1.0927
  316SOL     OW  947   1.853   1.758   0.475  0.0206  0.0579 -0.7442
  316SOL    HW1  948   1.907   1.834   0.438 -0.4947  0.3652 -0.8769
  316SOL    HW2  949   1.820   1.783   0.567 -2.5733  1.2297 -1.8925
  317SOL     OW  950   2.108   1.589   0.264  0.3520  0.2629  1.0135
  317SOL    HW1  951   2.133   1.643   0.344 -0.4104 -0.0635  1.4821
  317SOL    HW2  952   2.061   1.647   0.197 -1.2679  0.0399  1.8962
  318SOL     OW  953   1.134   1.859   0.150  0.0813 -0.3486  0.2104
  318SOL    HW1  954   1.223   1.835   0.111 -0.5244 -1.7805 -0.3522
  318SOL    HW2  955   1.064   1.854   0.079 -0.4095  1.2356  0.5323
  319SOL     OW  956   1.343   0.802   1.151 -0.6557  0.1892 -0.7221
  319SOL    HW1  957   1.428   0.750   1.146 -1.7368 -1.6198 -1.1249
  319SOL    HW2  958   1.313   0.807   1.246 -0.9906 -0.7188 -0.7696
  320SOL     OW  959   1.995   1.364   0.387  0.1330 -0.5437 -0.2048
  320SOL    HW1  960   2.054   1.444   0.383 -1.0160  0.3320 -0.1971
  320SOL    HW2  961   2.031   1.299   0.454  0.3867  0.5351  0.7222
  321SOL     OW  962   1.210   0.273   2.320  0.1370 -0.2760  0.0114
  321SOL    HW1  963   1.218   0.194   2.259  3.8511 -1.9135  2.2445
  321SOL    HW2  964   1.263   0.349   2.282 -0.1690 -0.1838 -0.2426
  322SOL     OW  965   1.116   2.141   1.992 -0.1145  0.0569 -0.3148
  322SOL    HW1  966   1.054   2.191   1.933 -0.3128  1.1708  0.7933
  322SOL    HW2  967   1.188   2.202   2.025  1.7411 -1.2613 -1.7500
  323SOL     OW  968   0.909   1.173   1.594 -0.4407  0.1947  0.4184
  323SOL    HW1  969   0.833   1.117   1.561 -0.2307 -0.5661  1.1843
  323SOL    HW2  970   0.992   1.149   1.543 -0.8031  1.4336 -0.8209
  324SOL     OW  971   0.647   0.869   1.808 -0.4257 -0.1898  0.4319
  324SOL    HW1  972   0.569   0.891   1.866 -1.8892 -0.4848 -1.3422
  324SOL    HW2  973   0.684   0.780   1.834 -0.4289  0.1005  1.4955
  325SOL     OW  974   0.255   1.860   1.248  0.3315 -0.2806  0.3565
  325SOL    HW1  975   0.174   1.817   1.287  0.7797 -0.6265  0.9401
  325SOL    HW2  976   0.264   1.953   1.282  0.1432 -0.2186  0.2359
  326SOL     OW  977   1.366   2.135   0.388  0.5386 -0.7923 -0.1490
  326SOL    HW1  978   1.457   2.094   0.396  1.0596  0.4019  0.2186
  326SOL    HW2  979   1.355   2.173   0.296  0.5365 -0.6475 -0.0891
  327SOL     OW  980   1.187   1.898   0.422  0.5729 -0.6386 -0.1453
  327SOL    HW1  981   1.150   1.892   0.329  0.6673  3.3954 -0.6165
  327SOL    HW2  982   1.267   1.957   0.423 -0.1649  0.5015  2.6347
  328SOL     OW  983   1.907   0.010   2.100  0.2118 -0.3736 -0.0962
  328SOL    HW1  984   2.003  -0.002   2.076  0.4495 -1.3698  1.2136
  328SOL    HW2  985   1.883  -0.054   2.173 -0.7516  1.6332  1.4592
  329SOL     OW  986   2.291   0.316   0.098 -0.1254 -0.4535  0.1158
  329SOL    HW1  987   2.375   0.351   0.056  0.1283  0.4997  1.3550
  329SOL    HW2  988   2.256   0.383   0.163 -2.3683 -0.4294 -0.9972
  330SOL     OW  989   0.547   0.211   0.206 -0.2386  0.2373 -0.0430
  330SOL    HW1  990   0.594   0.136   0.159 -0.1866 -0.4795  1.1180
  330SOL    HW2  991   0.513   0.276   0.138 -2.3610 -2.0048 -1.3081
  331SOL     OW  992   0.266   2.162   1.678 -0.0336  0.0745  0.7790
  331SOL    HW1  993   0.222   2.246   1.709 -0.3090 -0.4667  1.9045
  331SOL    HW2  994   0.365   2.168   1.696 -0.1564 -0.1341  1.5448
  332SOL     OW  995   1.358   0.660   1.937  0.0981  0.0649 -0.3397
  332SOL    HW1  996   1.432   0.618   1.990 -0.4643 -1.8938 -1.0630
  332SOL    HW2  997   1.377   0.652   1.840  0.4403  2.4181 -0.5287
  333SOL     OW  998   1.843   1.390   1.928  0.2177  0.2107  0.0724
  333SOL    HW1  999   1.838   1.334   1.845 -0.8510  0.6050 -0.1486
  333SOL    HW2 1000   1.900   1.470   1.911 -1.4639  1.2654 -0.9119
  334SOL     OW 1001   0.441   1.459   0.475  0.0978  0.1637 -0.2529
  334SOL    HW1 1002   0.443   1.360   0.482 -1.8910  0.1972  2.6242
  334SOL    HW2 1003   0.362   1.487   0.421 -0.3438  0.1593  0.3754
  335SOL     OW 1004   1.782   1.221   2.288 -0.3837  0.5871  0.0186
  335SOL    HW1 1005   1.696   1.171   2.285 -0.0791  0.0348 -3.2193
  335SOL    HW2 1006   1.840   1.192   2.212  1.9419  2.2061  1.0713
  336SOL     OW 1007   0.830   0.146   1.558 -0.2363 -0.3490 -0.2123
  336SOL    HW1 1008   0.800   0.095   1.477  1.5516 -1.5396 -0.1674
  336SOL    HW2 1009   0.798   0.099   1.640 -0.1319 -0.3949 -0.1977
  337SOL     OW 1010   0.777   1.952   1.979 -0.2942  0.2480 -0.1053
  337SOL    HW1 1011   0.850   1.947   2.046  0.7558  1.7071 -1.0981
  337SOL    HW2 1012   0.766   2.046   1.947  0.1434 -0.5717 -2.9229
  338SOL     OW 1013   1.555   1.638   1.963 -0.6328 -0.2275 -0.4013
  338SOL    HW1 1014   1.470   1.685   1.939 -0.5533 -0.2507 -0.7300
  338SOL    HW2 1015   1.633   1.697   1.943 -0.6086  0.2139  0.8857
  339SOL     OW 1016   0.930   0.701   0.220 -0.5310  0.0927 -0.3246
  339SOL    HW1 1017   0.849   0.693   0.277 -0.6857 -0.2320 -0.5903
  339SOL    HW2 1018   0.907   0.685   0.124 -0.1010 -0.3260 -0.3655
  340SOL     OW 1019   0.637   1.492   0.680 -0.2684  0.2338  0.4275
  340SOL    HW1 1020   0.565   1.508   0.613 -0.0635 -0.3604  0.0487
  340SOL    HW2 1021   0.685   1.407   0.657  1.8543  1.5902 -0.5086
  341SOL     OW 1022   0.632   0.313   0.881  0.4231  0.2054  0.5452
  341SOL    HW1 1023   0.601   0.345   0.970 -1.1282  0.7839 -0.1688
  341SOL    HW2 1024   0.642   0.391   0.819  1.0937 -0.2343  0.0781
  342SOL     OW 1025   0.408   1.096   1.389  0.5502 -0.7243  0.8562
  342SOL    HW1 1026   0.419   1.051   1.301 -0.3409 -1.4943  1.1258
  342SOL    HW2 1027   0.492   1.086   1.442  1.9400  1.6391 -0.7059
  343SOL     OW 1028   0.581   1.181   0.787 -0.0231 -0.4944  0.4521
  343SOL    HW1 1029   0.537   1.222   0.867  0.1093  2.3321 -0.8109
  343SOL    HW2 1030   0.674   1.219   0.777  0.4530 -1.7932 -0.3269
  344SOL     OW 1031   1.801   0.823   1.007  1.0967  0.2664 -0.0788
  344SOL    HW1 1032   1.748   0.801   0.924  1.9769  1.3832 -0.9757
  344SOL    HW2 1033   1.873   0.888   0.983  0.0879  2.2694  1.9542
  345SOL     OW 1034   1.383   0.961   0.939 -0.4470 -0.2126  0.1099
  345SOL    HW1 1035   1.297   0.986   0.892  0.1018  0.4942 -0.5478
  345SOL    HW2 1036   1.362   0.906   1.019 -1.3990 -2.3065 -1.4613
  346SOL     OW 1037   1.015   1.315   0.977 -0.0578  0.2026  0.4183
  346SOL    HW1 1038   0.989   1.233   1.029 -0.5843 -0.7768 -1.3017
  346SOL    HW2 1039   1.113   1.311   0.956 -0.4891 -1.2346 -1.6318
  347SOL     OW 1040   0.183   1.152   2.226  0.0739  0.0330 -0.4127
  347SOL    HW1 1041   0.090   1.117   2.216 -0.3873  1.1106 -0.0438
  347SOL    HW2 1042   0.181   1.238   2.276  1.4785 -1.0580  1.7108
  348SOL     OW 1043   0.417   1.838   0.826 -0.1193  0.7289  0.1981
  348SOL    HW1 1044   0.472   1.816   0.745  1.9390  2.0140  1.1842
  348SOL    HW2 1045   0.406   1.756   0.882 -0.1875  0.2104 -0.5506
  349SOL     OW 1046   0.214   2.316   0.406  0.1119  0.3379 -0.0632
  349SOL    HW1 1047   0.310   2.344   0.395  0.0231  0.5917 -0.2029
  349SOL    HW2 1048   0.155   2.386   0.367 -0.1537  0.4943  0.6040
  350SOL     OW 1049   0.422   0.165   1.539  0.0786  0.0781  0.3257
  350SOL    HW1 1050   0.481   0.121   1.608  0.3817 -0.9496 -0.5622
  350SOL    HW2 1051   0.478   0.196   1.462 -0.6145 -1.8230 -1.0044
  351SOL     OW 1052   1.787   0.039   1.834  0.1058  0.0417  0.1065
  351SOL    HW1 1053   1.702   0.087   1.812  0.3058  0.4585  0.2262
  351SOL    HW2 1054   1.809   0.054   1.930  0.6122  0.4133 -0.0639
  352SOL     OW 1055   1.706   2.020   0.115 -0.8601 -0.0993 -0.3057
  352SOL    HW1 1056   1.761   2.065   0.185  0.9859  0.6166 -2.1021
  352SOL    HW2 1057   1.662   2.089   0.057 -0.1833 -0.5943 -1.4500
  353SOL     OW 1058   0.075   2.071   0.970  0.1935  0.8355 -0.3296
  353SOL    HW1 1059   0.069   2.135   0.894 -1.7504  1.4564  0.2673
  353SOL    HW2 1060   0.123   2.114   1.047  0.6360  0.8400 -0.6063
  354SOL     OW 1061   1.283   1.302   0.937 -0.0406 -0.1387 -0.0483
  354SOL    HW1 1062   1.371   1.292   0.984 -0.6225 -3.4409  0.6074
  354SOL    HW2 1063   1.298   1.298   0.838  0.6406  0.5487  0.0194
  355SOL     OW 1064   0.958   1.049   0.972 -0.5909  0.1258 -0.0973
  355SOL    HW1 1065   0.861   1.035   0.948 -0.4215 -0.3699 -0.5095
  355SOL    HW2 1066   0.993   0.968   1.018  0.5249 -1.0988 -2.9078
  356SOL     OW 1067   2.158   0.418   1.879 -0.2344 -0.2803 -0.2012
  356SOL    HW1 1068   2.107   0.332   1.879  0.5594 -0.7724  0.4202
  356SOL    HW2 1069   2.240   0.409   1.823 -1.3627  0.8661 -2.1158
  357SOL     OW 1070   1.095   0.804   1.035 -0.1330 -0.2692  0.3990
  357SOL    HW1 1071   1.188   0.800   1.070  0.6438  1.6343 -1.2480
  357SOL    HW2 1072   1.069   0.714   0.999  1.5639 -0.5222 -0.2960
  358SOL     OW 1073   0.083   0.187   0.324 -0.2521  0.3849  0.2338
  358SOL    HW1 1074   0.065   0.211   0.228 -1.0740 -0.7053  0.1026
  358SOL    HW2 1075   0.017   0.232   0.383 -0.3325  0.3083  0.2020
  359SOL     OW 1076   1.229   0.588   1.563  0.2713  0.0758  0.3557
  359SOL    HW1 1077   1.326   0.613   1.559  0.1118  1.0915  1.8357
  359SOL    HW2 1078   1.178   0.663   1.606 -1.8579  1.4453 -4.0375
  360SOL     OW 1079   1.616   1.270   1.317  0.0006  0.3379 -0.3313
  360SOL    HW1 1080   1.679   1.193   1.313 -1.6303 -1.2787  2.4285
  360SOL    HW2 1081   1.668   1.353   1.339  1.6488 -0.0313 -2.4130
  361SOL     OW 1082   1.512   0.023   2.066  0.2354  0.3175  0.7875
  361SOL    HW1 1083   1.505  -0.027   1.980  1.6090  0.3746  0.6128
  361SOL    HW2 1084   1.544   0.116   2.048 -2.2199  1.2833  1.1200
  362SOL     OW 1085   2.305   2.093   2.265  0.0042  0.1469 -0.2873
  362SOL    HW1 1086   2.266   2.015   2.314  1.2124  0.0307  0.5456
  362SOL    HW2 1087   2.347   2.156   2.331  3.1009 -0.8010 -1.2003
  363SOL     OW 1088   1.417   0.431   2.227  0.8053  0.5230  0.1526
  363SOL    HW1 1089   1.456   0.521   2.245  0.0296  1.1243 -1.0626
  363SOL    HW2 1090   1.463   0.390   2.148 -0.2832  0.8124 -0.6655
  364SOL     OW 1091   1.289   1.847   2.240  0.1388 -0.5687  0.0895
  364SOL    HW1 1092   1.288   1.747   2.242  0.2113 -0.5698  0.0743
  364SOL    HW2 1093   1.382   1.879   2.253 -0.0295 -0.4775  1.1260
  365SOL     OW 1094   1.986   1.011   0.940  0.5814  0.5336 -0.3432
  365SOL    HW1 1095   2.080   0.980   0.954  0.7071  1.7031  1.9955
  365SOL    HW2 1096   1.964   1.080   1.009 -1.7715  0.8219 -1.3048
  366SOL     OW 1097   0.050   1.652   1.063  0.7604  0.6003  0.2480
  366SOL    HW1 1098   0.033   1.705   0.980 -0.8049 -0.4968 -0.1819
  366SOL    HW2 1099  -0.037   1.633   1.109  1.4281 -0.3426  1.1689
  367SOL     OW 1100   0.859   0.446   1.477 -0.3151 -0.1922  0.0706
  367SOL    HW1 1101   0.853   0.539   1.514 -2.6207 -0.5975  0.8974
  367SOL    HW2 1102   0.940   0.401   1.515  0.4979  1.2653  0.1395
  368SOL     OW 1103   0.821   2.272   0.325 -0.1186 -0.1757  0.4893
  368SOL    HW1 1104   0.798   2.354   0.377  1.0082  0.2387  0.3511
  368SOL    HW2 1105   0.920   2.268   0.310 -0.2061 -1.3352  0.1172
  369SOL     OW 1106   1.433   2.017   0.998 -0.6300 -0.0017 -0.0767
  369SOL    HW1 1107   1.501   2.033   0.926  0.4319  0.1120  0.9213
  369SOL    HW2 1108   1.419   1.919   1.010 -1.4347 -0.0197 -0.9750
  370SOL     OW 1109   0.413   1.809   1.492  0.0209  0.0129 -0.2626
  370SOL    HW1 1110   0.377   1.726   1.536 -1.2868  0.8588  0.3463
  370SOL    HW2 1111   0.389   1.808   1.395  2.0082 -1.3728 -0.7828
  371SOL     OW 1112   0.674   1.471   0.278 -0.2383  0.3798  0.0628
  371SOL    HW1 1113   0.597   1.509   0.329  0.1243  1.4772 -0.1754
  371SOL    HW2 1114   0.742   1.435   0.342  0.2707  1.8616  0.3946
  372SOL     OW 1115   0.109   2.140   0.559  0.2080  0.0004  0.2112
  372SOL    HW1 1116   0.133   2.170   0.652  0.4583 -0.1911  0.2100
  372SOL    HW2 1117   0.159   2.195   0.492 -0.7518  0.8335  0.1567
  373SOL     OW 1118   1.954   2.188   1.212  0.6727 -0.3405  0.2361
  373SOL    HW1 1119   2.009   2.168   1.131 -0.3824 -1.2144 -0.2950
  373SOL    HW2 1120   1.962   2.286   1.234  1.4694 -0.2139 -0.5351
  374SOL     OW 1121   1.067   2.210   1.521 -0.2071  0.1684 -0.1616
  374SOL    HW1 1122   1.118   2.286   1.479 -1.2861  1.3055  0.5254
  374SOL    HW2 1123   1.022   2.242   1.604  1.6174 -1.9463  1.8019
  375SOL     OW 1124   0.924   1.968   1.070  0.2189  0.0698  0.1389
  375SOL    HW1 1125   0.899   1.876   1.039 -1.7195  0.1440  1.2973
  375SOL    HW2 1126   0.970   2.018   0.996 -2.9784 -0.1816 -2.2035
  376SOL     OW 1127   0.749   0.978   1.392 -0.1790  0.2474 -0.0941
  376SOL    HW1 1128   0.675   0.921   1.428 -0.6076  1.5799  1.2401
  376SOL    HW2 1129   0.716   1.032   1.315 -0.1806 -0.1766 -0.3980
  377SOL     OW 1130   1.263   1.516   0.208  0.2702 -0.0372 -0.4168
  377SOL    HW1 1131   1.173   1.526   0.250  0.0528  1.9401 -1.2377
  377SOL    HW2 1132   1.298   1.424   0.225 -1.6683 -0.6785  0.3597
  378SOL     OW 1133   1.955   2.238   0.028 -0.1744  0.6389  0.0764
  378SOL    HW1 1134   1.922   2.181   0.103 -3.1935 -0.0619 -1.6018
  378SOL    HW2 1135   1.938   2.334   0.049 -0.9129  0.4537  0.3497
  379SOL     OW 1136   0.297   1.175   0.606  0.4834  0.4634  0.1457
  379SOL    HW1 1137   0.375   1.118   0.630  1.4424  0.5839 -2.3662
  379SOL    HW2 1138   0.216   1.117   0.595  1.0157 -0.1823 -0.5171
  380SOL     OW 1139   1.523   1.592   0.919 -0.1058  0.2597  0.4704
  380SOL    HW1 1140   1.559   1.616   0.829 -0.7180 -0.2400  0.0801
  380SOL    HW2 1141   1.555   1.501   0.945 -1.2662 -0.3176 -0.0105
  381SOL     OW 1142   0.992   2.099   0.634  0.9001  0.2085 -0.3285
  381SOL    HW1 1143   1.063   2.061   0.575  1.6827  0.3616  0.4932
  381SOL    HW2 1144   0.997   2.199   0.634  0.2497  0.2449 -0.7880
  382SOL     OW 1145   1.907   1.407   1.143  0.1844 -0.2343 -0.1138
  382SOL    HW1 1146   1.878   1.374   1.053 -2.2154 -4.8199  1.9845
  382SOL    HW2 1147   1.840   1.472   1.178 -0.0321 -0.1016 -0.7510
  383SOL     OW 1148   0.681   1.156   1.207  0.0227 -0.4438 -0.4092
  383SOL    HW1 1149   0.607   1.207   1.162  0.7905 -0.0325 -1.2562
  383SOL    HW2 1150   0.696   1.070   1.159 -0.6964 -1.0781  0.4945
  384SOL     OW 1151   0.710   0.589   1.884  0.2388 -0.1422 -0.6927
  384SOL    HW1 1152   0.694   0.510   1.825  2.0337 -0.3477 -0.9484
  384SOL    HW2 1153   0.637   0.595   1.952  0.5260 -2.5563 -0.0918
  385SOL     OW 1154   1.876   1.723   0.955  0.2078 -0.0485  0.3150
  385SOL    HW1 1155   1.908   1.734   1.049  0.5051 -2.0064  0.4798
  385SOL    HW2 1156   1.836   1.632   0.943 -1.1531  0.6784 -1.0936
  386SOL     OW 1157   0.105   0.594   1.003 -0.0362  0.0337  0.1284
  386SOL    HW1 1158   0.172   0.625   0.935 -0.7610  0.5046 -0.3930
  386SOL    HW2 1159   0.046   0.523   0.962 -1.9298  1.8828 -0.5351
  387SOL     OW 1160   0.157   2.213   1.197 -0.2420  0.1064  0.1121
  387SOL    HW1 1161   0.116   2.273   1.265 -2.0442  0.2435 -1.0228
  387SOL    HW2 1162   0.256   2.219   1.202 -0.3651  2.1788  0.9046
  388SOL     OW 1163   1.826   1.827   1.224 -0.1551  0.0051  0.0928
  388SOL    HW1 1164   1.757   1.788   1.283 -1.3799  1.8082 -0.0638
  388SOL    HW2 1165   1.794   1.915   1.188  0.7118 -0.8005 -2.9054
  389SOL     OW 1166   2.225   1.126   1.570 -0.1060 -0.1247 -0.1819
  389SOL    HW1 1167   2.306   1.129   1.511 -0.6804 -1.0868 -1.0487
  389SOL    HW2 1168   2.172   1.209   1.558  0.3375  0.1604 -0.2037
  390SOL     OW 1169   0.673   1.985   1.363  0.0670  0.2914 -0.1020
  390SOL    HW1 1170   0.752   1.971   1.423  1.0229  1.3526 -1.0745
  390SOL    HW2 1171   0.599   1.922   1.390  1.2290 -0.7324  0.8154
  391SOL     OW 1172   1.269   1.584   2.285  0.0042 -0.3220  0.5643
  391SOL    HW1 1173   1.355   1.542   2.256 -0.0382 -0.9259  1.2686
  391SOL    HW2 1174   1.262   1.578   2.385 -1.0140 -0.5917  0.4827
  392SOL     OW 1175   1.463   2.282   1.323  0.1319  0.3279  0.5134
  392SOL    HW1 1176   1.510   2.300   1.236  1.4916 -2.1776  0.6169
  392SOL    HW2 1177   1.426   2.190   1.322 -2.1359  1.1660  1.6742
  393SOL     OW 1178   1.073   0.438   1.725 -0.4219  0.2320  0.2877
  393SOL    HW1 1179   1.041   0.499   1.797  1.8183  0.1124  1.4671
  393SOL    HW2 1180   1.133   0.489   1.662  0.1260 -0.3700  0.3158
  394SOL     OW 1181   2.252   0.933   0.936  0.2064  0.2300  0.5619
  394SOL    HW1 1182   2.333   0.933   0.877  0.2702 -1.4239  0.5979
  394SOL    HW2 1183   2.275   0.889   1.023 -0.8752 -0.8663  0.3222
  395SOL     OW 1184   1.337   1.455   0.719 -0.4928 -0.1756  0.0231
  395SOL    HW1 1185   1.320   1.505   0.804  2.6006  1.3524 -0.1227
  395SOL    HW2 1186   1.300   1.508   0.642  1.4634  1.2657  0.0045
  396SOL     OW 1187   2.269   1.278   1.244 -0.3790 -0.3096 -0.6161
  396SOL    HW1 1188   2.279   1.377   1.232 -1.8108 -0.0637 -0.0001
  396SOL    HW2 1189   2.357   1.239   1.269 -0.2993  1.2272  1.7980
  397SOL     OW 1190   0.758   0.637   1.151  0.7167  0.2514  0.6988
  397SOL    HW1 1191   0.829   0.663   1.217  1.3067  1.4085 -0.3441
  397SOL    HW2 1192   0.798   0.635   1.059 -0.5997  0.9069  0.0944
  398SOL     OW 1193   2.225   0.260   1.086  0.5387  0.2815  0.3195
  398SOL    HW1 1194   2.288   0.265   1.009  0.4516 -1.4535  0.1107
  398SOL    HW2 1195   2.212   0.352   1.124 -0.6576  1.4886 -2.6986
  399SOL     OW 1196   0.206   0.323   1.900 -0.2658  0.2297 -0.4373
  399SOL    HW1 1197   0.171   0.389   1.834 -1.7806 -1.3125 -1.2725
  399SOL    HW2 1198   0.225   0.236   1.854  2.9103  0.3617  0.3697
  400SOL     OW 1199   0.037   1.851   1.429  0.0464  0.2897 -0.5059
  400SOL    HW1 1200  -0.002   1.927   1.377  1.3368  0.5558 -1.1122
  400SOL    HW2 1201   0.080   1.887   1.512 -0.6379  0.0362 -0.0276
  401SOL     OW 1202   0.546   2.217   1.708 -0.4590 -0.1722  0.2678
  401SOL    HW1 1203   0.537   2.117   1.706  1.3964 -0.3823 -1.5162
  401SOL    HW2 1204   0.558   2.251   1.614 -0.3881  1.6542  0.9014
  402SOL     OW 1205   1.011   1.570   0.345  0.3789 -0.1286  0.0809
  402SOL    HW1 1206   0.978   1.571   0.251 -1.3240  1.5672  0.6244
  402SOL    HW2 1207   0.973   1.648   0.395  2.3290 -0.1986  1.8306
  403SOL     OW 1208   0.066   0.808   1.147 -0.0813 -0.0782  0.9885
  403SOL    HW1 1209   0.057   0.803   1.246  2.6360  0.2145  1.3175
  403SOL    HW2 1210   0.068   0.715   1.109  1.3419 -0.2730  1.5067
  404SOL     OW 1211   0.988   0.776   0.777 -0.0205 -0.4656  0.3514
  404SOL    HW1 1212   1.023   0.843   0.843 -0.0671 -0.3326  0.2427
  404SOL    HW2 1213   1.034   0.788   0.689 -3.7299  3.1742 -1.4296
  405SOL     OW 1214   2.204   2.277   0.246  0.1402 -0.4997  0.4637
  405SOL    HW1 1215   2.271   2.320   0.185  0.1662  0.0109  0.8371
  405SOL    HW2 1216   2.115   2.321   0.235  0.4547  0.5570  1.7500
  406SOL     OW 1217   0.787   0.025   1.305  0.1360  0.4897 -0.6455
  406SOL    HW1 1218   0.882  -0.002   1.288 -0.3978 -0.9042 -1.6102
  406SOL    HW2 1219   0.763   0.100   1.243  0.3376  0.1957 -1.0943
  407SOL     OW 1220   1.577   1.921   2.174 -0.1946 -0.0982 -0.3461
  407SOL    HW1 1221   1.644   1.859   2.214  0.0491  0.0945 -0.4541
  407SOL    HW2 1222   1.608   1.951   2.084 -0.4841 -0.1064 -0.4477
  408SOL     OW 1223   0.263   0.787   0.524 -0.3309  0.1364 -0.4420
  408SOL    HW1 1224   0.287   0.694   0.496  0.0590  0.3239 -0.7412
  408SOL    HW2 1225   0.268   0.848   0.445  1.1933  0.7530  0.0943
  409SOL     OW 1226   1.514   2.252   2.313 -0.3300 -0.0231  0.1167
  409SOL    HW1 1227   1.574   2.323   2.348 -1.7399  1.9016 -1.1534
  409SOL    HW2 1228   1.508   2.260   2.213 -0.4611 -2.0238 -0.0837
  410SOL     OW 1229   2.206   1.680   2.061 -0.1102 -0.0806 -0.0347
  410SOL    HW1 1230   2.263   1.732   2.125 -0.7276  0.2358  0.2671
  410SOL    HW2 1231   2.213   1.722   1.970  0.2421 -0.1274 -0.0322
  411SOL     OW 1232   2.225   0.810   2.041  0.5594 -0.4999 -0.1380
  411SOL    HW1 1233   2.314   0.775   2.014 -0.1289 -3.2707  0.8284
  411SOL    HW2 1234   2.223   0.822   2.140 -0.0961 -0.2293 -0.1787
  412SOL     OW 1235   1.030   2.233   1.221  0.0636 -0.2008  0.1502
  412SOL    HW1 1236   1.086   2.190   1.291 -1.6890  0.4950  2.0650
  412SOL    HW2 1237   0.996   2.163   1.158 -2.7037 -1.8383  3.1621
  413SOL     OW 1238   2.185   1.282   0.841 -0.3786  0.1141  0.2856
  413SOL    HW1 1239   2.136   1.223   0.904 -1.1845 -0.1615 -0.5792
  413SOL    HW2 1240   2.282   1.259   0.843 -0.1723  0.9124  2.2884
  414SOL     OW 1241   0.991   1.147   2.108  0.1835  0.6479 -0.2884
  414SOL    HW1 1242   1.076   1.141   2.054 -0.9600  0.9628 -2.2103
  414SOL    HW2 1243   0.912   1.137   2.047 -1.1825  0.0203  1.5026
  415SOL     OW 1244   2.016   1.822   1.586 -0.3188 -0.1589 -0.1443
  415SOL    HW1 1245   2.076   1.902   1.581  0.1482 -0.3869  1.3262
  415SOL    HW2 1246   2.066   1.741   1.557  0.1807 -0.3759  1.2379
  416SOL     OW 1247   0.688   1.495   1.103  0.5108 -0.0812  0.0089
  416SOL    HW1 1248   0.623   1.477   1.029 -0.8132  2.8255  0.3480
  416SOL    HW2 1249   0.781   1.481   1.070 -0.1261 -1.0087 -1.5057
  417SOL     OW 1250   2.145   1.221   0.572 -0.0831 -0.1126 -0.1998
  417SOL    HW1 1251   2.229   1.230   0.519  0.6511 -4.3822 -0.0656
  417SOL    HW2 1252   2.163   1.245   0.667  0.4262  0.8510 -0.5237
   2.33432   2.33432   2.33432
