Protein in water
 1252
    1ETHH    EH    1   1.239   1.278   1.245 -1.4999  0.6410  0.4999
    1ETHH    EO    2   1.274   1.199   1.180  0.3042  0.0679 -0.3948
    1ETHH   EC1    3   1.161   1.153   1.114 -0.5187  0.4116  0.3053
    1ETHH   EC2    4   1.127   1.006   1.138 -0.1253  0.0145 -0.7256
    2SOL     OW    5   1.406   0.468   1.738  0.2070 -0.7901 -0.0638
    2SOL    HW1    6   1.337   0.480   1.810  1.1291 -1.0938  0.8888
    2SOL    HW2    7   1.369   0.503   1.652 -1.4106 -1.6145  0.2532
    3SOL     OW    8   0.963   0.007   0.355  0.9162  0.1515 -0.3066
    3SOL    HW1    9   0.999   0.065   0.282  1.0431  1.3102  0.6464
    3SOL    HW2   10   1.006   0.032   0.442  1.3298 -1.7146  0.0751
    4SOL     OW   11   2.288   1.394   0.293 -0.7861 -0.0860 -0.1434
    4SOL    HW1   12   2.328   1.418   0.205 -2.8124 -0.1206 -1.1351
    4SOL    HW2   13   2.323   1.456   0.363 -0.6968  1.3137 -1.3762
    5SOL     OW   14   1.657   0.654   0.502  1.0320  0.5728 -0.5095
    5SOL    HW1   15   1.708   0.667   0.587 -0.0467  1.2712  0.0409
    5SOL    HW2   16   1.573   0.603   0.520  0.4613  1.2984 -1.0279
    6SOL     OW   17   0.594   0.418   1.948  0.5172  0.3734  0.3765
    6SOL    HW1   18   0.676   0.460   1.989  0.9624  0.7221 -0.8312
    6SOL    HW2   19   0.538   0.378   2.021  0.4712  2.3578  1.5242
    7SOL     OW   20   0.330   0.256   0.277 -0.1202 -0.2840  0.1835
    7SOL    HW1   21   0.410   0.316   0.274  0.0526 -0.5371 -0.4574
    7SOL    HW2   22   0.256   0.301   0.326  0.5258 -0.1861  1.0995
    8SOL     OW   23   1.288   1.374   1.722  0.3980 -0.2556  0.1372
    8SOL    HW1   24   1.288   1.304   1.651 -0.1935  0.3499 -0.4713
    8SOL    HW2   25   1.365   1.437   1.707  1.4580 -1.2411  1.1834
    9SOL     OW   26   1.233   0.865   0.558 -0.3323  0.4065  0.2280
    9SOL    HW1   27   1.315   0.907   0.520  0.7238 -0.8794  0.9704
    9SOL    HW2   28   1.227   0.886   0.656 -1.6625  1.6185 -0.0778
   10SOL     OW   29   0.578   1.974   1.603  0.0248 -0.3919  0.0674
   10SOL    HW1   30   0.549   2.036   1.675 -0.6468  0.0347 -0.5512
   10SOL    HW2   31   0.531   1.998   1.518 -0.9443 -2.2762  0.0028
   11SOL     OW   32   0.274   0.817   1.228 -0.0460  0.3836 -0.8181
   11SOL    HW1   33   0.290   0.863   1.141 -1.0097  0.8116 -0.7816
   11SOL    HW2   34   0.348   0.839   1.292 -0.7463  2.3627 -0.6249
   12SOL     OW   35   2.055   0.459   0.269 -0.0616 -0.4940  0.2101
   12SOL    HW1   36   2.039   0.397   0.346  0.8424 -0.7983  0.1645
   12SOL    HW2   37   2.136   0.429   0.219  0.5840  0.9078  0.3720
   13SOL     OW   38   1.521   0.179   2.314  0.4726 -0.3159  0.6603
   13SOL    HW1   39   1.474   0.116   2.376  0.8384 -0.9273  0.3288
   13SOL    HW2   40   1.582   0.127   2.254 -0.1761  0.2008 -0.4886
   14SOL     OW   41   2.115   1.081   1.567 -0.5831  0.2023  0.1396
   14SOL    HW1   42   2.201   1.113   1.605  0.4002 -2.1032  0.0518
   14SOL    HW2   43   2.063   1.033   1.638 -0.0906 -1.5518 -0.6332
   15SOL     OW   44   0.763   0.598   1.582  0.0609 -0.0481  0.1516
   15SOL    HW1   45   0.828   0.524   1.603  0.7820  0.7717  0.8524
   15SOL    HW2   46   0.698   0.608   1.657 -0.5183 -0.4629 -0.2821
   16SOL     OW   47   0.635   1.718   0.454 -0.0975  0.6710 -0.3284
   16SOL    HW1   48   0.683   1.795   0.496 -1.0793  1.0478  0.1323
   16SOL    HW2   49   0.553   1.751   0.406  0.0852  0.0432 -1.0971
   17SOL     OW   50   1.915   0.120   0.743 -0.2708  0.0176  0.4847
   17SOL    HW1   51   1.880   0.046   0.686  0.0627 -0.0986  0.4286
   17SOL    HW2   52   1.912   0.092   0.839 -1.3499  0.4232  0.5787
   18SOL     OW   53   1.731   0.113   0.199 -0.1254 -0.1838 -0.6014
   18SOL    HW1   54   1.668   0.035   0.202 -0.2227 -0.1949 -2.0351
   18SOL    HW2   55   1.681   0.197   0.218 -0.5868 -0.1964 -1.7031
   19SOL     OW   56   0.256   0.916   1.984  0.2374  1.0681 -0.4177
   19SOL    HW1   57   0.170   0.865   1.993  0.5259  0.6518 -0.0127
   19SOL    HW2   58   0.271   0.970   2.066  0.0216  1.6763 -0.7741
   20SOL     OW   59   1.633   1.676   1.290 -0.5877 -0.5608  0.7074
   20SOL    HW1   60   1.684   1.608   1.343  0.9024  1.0505  1.4589
   20SOL    HW2   61   1.657   1.667   1.193  1.8525  0.6252  1.1121
   21SOL     OW   62   2.145   0.084   2.009  0.5820 -0.3592 -0.4444
   21SOL    HW1   63   2.188   0.056   2.095 -3.4682  0.4586  2.1001
   21SOL    HW2   64   2.159   0.182   1.995  0.5252 -0.3286 -0.2832
   22SOL     OW   65   0.436   1.323   2.179 -0.1862  0.0347  0.0418
   22SOL    HW1   66   0.441   1.346   2.082 -1.5824 -0.6119 -0.2034
   22SOL    HW2   67   0.457   1.405   2.233  2.3567 -0.0172 -0.7518
   23SOL     OW   68   1.704   0.195   1.178  0.0760 -0.5715 -0.0149
   23SOL    HW1   69   1.671   0.141   1.101  0.2390 -0.6527 -0.0278
   23SOL    HW2   70   1.699   0.292   1.156 -0.6084 -0.5635  0.1620
   24SOL     OW   71   1.666   0.296   0.644 -0.2038  0.3372  0.4027
   24SOL    HW1   72   1.713   0.355   0.578 -0.3321 -0.0214 -0.0083
   24SOL    HW2   73   1.733   0.244   0.696 -0.1447 -1.2447 -1.1566
   25SOL     OW   74   0.159   1.768   1.865  0.1377  0.2672  0.3819
   25SOL    HW1   75   0.150   1.695   1.797 -1.4508  0.0731  0.7608
   25SOL    HW2   76   0.247   1.758   1.912  0.2174 -1.0313  0.0125
   26SOL     OW   77   0.619   0.246   1.440 -0.1407 -0.9286  0.6202
   26SOL    HW1   78   0.653   0.230   1.533 -0.7174  2.4551  1.5275
   26SOL    HW2   79   0.666   0.324   1.400 -0.5102 -1.7869 -1.6774
   27SOL     OW   80   2.191   0.448   1.704  0.3013 -0.3604  0.0608
   27SOL    HW1   81   2.222   0.543   1.709 -0.7601  0.1203 -1.6922
   27SOL    HW2   82   2.116   0.441   1.639 -0.4799 -2.2140  1.0830
   28SOL     OW   83   0.817   1.178   2.327 -0.0318 -0.2024  0.1314
   28SOL    HW1   84   0.834   1.112   2.253 -0.7123 -1.1113  0.7698
   28SOL    HW2   85   0.748   1.142   2.389 -1.2264  1.5956 -0.0846
   29SOL     OW   86   0.585   1.461   1.960  0.3171 -0.6251 -0.3055
   29SOL    HW1   87   0.684   1.451   1.975  0.7428 -0.2261 -2.4697
   29SOL    HW2   88   0.565   1.554   1.929 -1.2698  0.3990  3.3194
   30SOL     OW   89   1.165   1.655   2.204 -0.0086 -0.2073 -0.4921
   30SOL    HW1   90   1.193   1.583   2.268  1.3554 -0.8286 -1.7153
   30SOL    HW2   91   1.071   1.682   2.223  0.0514 -1.0324  1.1508
   31SOL     OW   92   1.262   2.272   2.213 -0.5346 -0.2076 -0.4840
   31SOL    HW1   93   1.181   2.220   2.242 -0.1346 -0.6025 -0.0523
   31SOL    HW2   94   1.335   2.208   2.187  0.0578  0.1213  0.3161
   32SOL     OW   95   2.157   1.954   1.382 -0.2536 -0.1248  0.1251
   32SOL    HW1   96   2.099   1.889   1.332 -0.5355 -0.0981  0.4137
   32SOL    HW2   97   2.102   2.033   1.408 -0.2722 -0.4344  1.0528
   33SOL     OW   98   1.589   0.612   0.910  0.3852 -0.2537 -0.2601
   33SOL    HW1   99   1.538   0.567   0.837  1.2498 -0.0477 -1.0053
   33SOL    HW2  100   1.628   0.697   0.876  0.5227  0.0082  0.5375
   34SOL     OW  101   0.948   1.434   0.697 -0.4332 -0.0563 -0.2402
   34SOL    HW1  102   1.010   1.426   0.618 -1.9085 -1.6497 -1.3152
   34SOL    HW2  103   0.993   1.486   0.769  1.2405  0.8694 -1.8606
   35SOL     OW  104   0.875   1.586   1.260 -0.6547  0.4959  0.5489
   35SOL    HW1  105   0.961   1.616   1.302  0.3043  1.7258 -2.0607
   35SOL    HW2  106   0.808   1.567   1.331  0.8696  2.3048  2.6137
   36SOL     OW  107   0.196   2.242   1.881  0.3708  0.2857  0.2570
   36SOL    HW1  108   0.178   2.229   1.979  1.4031  1.0536  0.5752
   36SOL    HW2  109   0.183   2.339   1.858  0.1859  0.1170 -0.3603
   37SOL     OW  110   0.477   1.849   2.324 -0.0147  0.3050  0.0004
   37SOL    HW1  111   0.513   1.879   2.412 -1.7421  0.0680  0.8381
   37SOL    HW2  112   0.413   1.917   2.289 -1.0379 -0.6141  0.0308
   38SOL     OW  113   1.885   1.893   1.276  0.1454  0.5313 -0.8479
   38SOL    HW1  114   1.849   1.984   1.254 -1.7365 -0.4486 -1.9994
   38SOL    HW2  115   1.915   1.848   1.193  0.9742  0.0219 -0.2886
   39SOL     OW  116   1.986   2.307   0.198 -0.7096 -0.2207  0.2176
   39SOL    HW1  117   1.895   2.293   0.237 -0.8063  0.0080  0.0822
   39SOL    HW2  118   1.983   2.387   0.138 -0.9764 -1.5018 -1.5490
   40SOL     OW  119   0.839   0.043   0.930 -0.4003 -0.3871 -0.2774
   40SOL    HW1  120   0.746   0.076   0.945 -0.3521 -0.1204 -0.5625
   40SOL    HW2  121   0.842  -0.055   0.945 -0.7690 -0.4290 -0.4617
   41SOL     OW  122   0.893   0.407   1.062  0.1355 -0.1313  0.4390
   41SOL    HW1  123   0.944   0.388   1.146 -0.2622 -0.0228  0.7121
   41SOL    HW2  124   0.858   0.501   1.065  0.0338 -0.1596  0.1965
   42SOL     OW  125   1.616   0.330   1.387  0.2621 -0.4729 -0.1910
   42SOL    HW1  126   1.681   0.288   1.324 -0.2355  0.5715 -1.4473
   42SOL    HW2  127   1.529   0.281   1.383  0.4084 -0.7648  0.1375
   43SOL     OW  128   0.862   0.659   0.241 -0.1356 -0.2938  0.4817
   43SOL    HW1  129   0.838   0.755   0.229 -2.0628 -0.8052 -0.0312
   43SOL    HW2  130   0.920   0.629   0.165 -1.4037 -0.1087 -0.5771
   44SOL     OW  131   0.517   0.837   1.385  0.3670 -0.4313 -0.4653
   44SOL    HW1  132   0.477   0.853   1.475 -2.2555 -1.9732 -1.2452
   44SOL    HW2  133   0.534   0.925   1.340  1.9434  0.3749  1.5294
   45SOL     OW  134   0.935   2.107   0.899 -0.4080 -0.1949  0.0226
   45SOL    HW1  135   0.889   2.025   0.865 -0.2824 -0.5259  0.6353
   45SOL    HW2  136   1.000   2.140   0.831  0.3097 -1.2255  0.2006
   46SOL     OW  137   0.398   2.257   2.320 -0.5548  0.0662  0.1460
   46SOL    HW1  138   0.452   2.253   2.404  0.2005  2.3979 -0.1343
   46SOL    HW2  139   0.310   2.301   2.339 -1.2021 -1.1423  0.0475
   47SOL     OW  140   2.262   1.845   0.753 -0.1086 -0.0834  0.4286
   47SOL    HW1  141   2.288   1.856   0.657 -1.0794 -0.5282  0.1035
   47SOL    HW2  142   2.279   1.930   0.802  0.6160  0.0756 -0.0760
   48SOL     OW  143   0.060   2.079   2.127 -0.1281 -0.1033 -0.6244
   48SOL    HW1  144   0.015   1.991   2.143 -0.5202  0.2797  0.4817
   48SOL    HW2  145  -0.008   2.152   2.133  0.4762  0.4074  0.1864
   49SOL     OW  146   1.460   0.977   2.092 -0.2186 -0.4434  0.3312
   49SOL    HW1  147   1.390   0.982   2.163 -0.2275  3.8025  0.2585
   49SOL    HW2  148   1.549   0.956   2.133 -0.1972  2.0698  1.7589
   50SOL     OW  149   1.761   0.713   1.108 -0.0690  0.1328  0.2804
   50SOL    HW1  150   1.831   0.722   1.038  0.9935  3.2542  1.5269
   50SOL    HW2  151   1.679   0.671   1.069  0.7158  1.0673 -2.6339
   51SOL     OW  152   0.519   0.447   2.306 -0.0215 -0.5103 -0.1384
   51SOL    HW1  153   0.474   0.536   2.296  0.7621 -0.2610 -1.7613
   51SOL    HW2  154   0.485   0.384   2.236  0.9735 -0.8177 -0.3594
   52SOL     OW  155   0.621   0.928   0.360  0.1841 -0.6496 -0.1784
   52SOL    HW1  156   0.567   0.992   0.306 -0.8353 -1.5196 -0.2238
   52SOL    HW2  157   0.565   0.849   0.383  1.2174 -1.2166  0.4497
   53SOL     OW  158   1.673   2.217   1.857  0.1867  0.1210 -0.0182
   53SOL    HW1  159   1.713   2.163   1.783 -1.7689 -0.8929 -0.3933
   53SOL    HW2  160   1.680   2.314   1.834  3.8549  0.1676  0.7208
   54SOL     OW  161   1.086   2.099   1.154 -0.7109  0.4619 -0.1464
   54SOL    HW1  162   1.074   2.001   1.171  0.8554 -0.2737 -2.8484
   54SOL    HW2  163   1.030   2.127   1.076  0.1466  1.3285 -0.4772
   55SOL     OW  164   1.417   1.313   0.705  0.1166 -0.7080  0.9000
   55SOL    HW1  165   1.420   1.286   0.609  0.4878  2.8260 -0.2550
   55SOL    HW2  166   1.336   1.274   0.749 -0.1849 -2.2038 -0.9013
   56SOL     OW  167   2.217   1.604   1.391  0.1480  0.2172 -0.3119
   56SOL    HW1  168   2.230   1.672   1.463 -2.1647 -0.6962  1.0792
   56SOL    HW2  169   2.227   1.647   1.301  2.1675  1.5832  0.5050
   57SOL     OW  170   2.021   0.307   2.190 -0.7269  0.2212  0.2033
   57SOL    HW1  171   1.954   0.368   2.232 -1.6370 -0.1775 -0.6452
   57SOL    HW2  172   2.042   0.340   2.097 -1.8884 -1.2000 -0.6068
   58SOL     OW  173   1.347   0.041   1.066 -0.1252 -0.4104 -0.2086
   58SOL    HW1  174   1.253   0.075   1.064 -0.5199 -1.4649 -0.1763
   58SOL    HW2  175   1.365  -0.012   0.983  0.8783  0.8602 -0.8490
   59SOL     OW  176   1.707   0.427   1.054  0.2048  0.2070 -0.5047
   59SOL    HW1  177   1.669   0.485   0.983  0.4346 -0.1663 -0.9362
   59SOL    HW2  178   1.807   0.437   1.056  0.2016  0.2059 -0.2404
   60SOL     OW  179   1.650   0.120   1.698 -0.1981  0.1459  0.3226
   60SOL    HW1  180   1.679   0.091   1.607 -0.4577  2.3535 -0.5240
   60SOL    HW2  181   1.552   0.103   1.708 -0.3697  0.7793 -0.2026
   61SOL     OW  182   1.378   0.831   1.320  0.7727  0.5897 -0.1100
   61SOL    HW1  183   1.330   0.773   1.255  2.3082 -1.3352  0.4034
   61SOL    HW2  184   1.473   0.842   1.292  0.7970  1.9405  0.4152
   62SOL     OW  185   0.128   0.310   2.057 -0.2972  0.7736  0.2273
   62SOL    HW1  186   0.104   0.234   2.117  2.2255  0.5201  1.0435
   62SOL    HW2  187   0.102   0.397   2.101  1.3620  0.5851  1.6879
   63SOL     OW  188   1.077   0.512   0.759  0.0020 -0.5295  0.4258
   63SOL    HW1  189   1.083   0.606   0.791 -0.1076 -0.7907  1.2366
   63SOL    HW2  190   0.981   0.489   0.742 -0.0614 -0.7738  1.0986
   64SOL     OW  191   0.128   1.802   0.502  0.0624 -0.3769  0.0634
   64SOL    HW1  192   0.050   1.848   0.459  0.0433 -1.1157 -0.7133
   64SOL    HW2  193   0.178   1.867   0.559  0.5493  0.8498 -1.6829
   65SOL     OW  194   1.661   1.422   1.550  0.0766  0.7392  0.5012
   65SOL    HW1  195   1.628   1.421   1.645 -0.4968 -1.4199  0.3361
   65SOL    HW2  196   1.756   1.389   1.548 -0.5617 -1.2091  0.1803
   66SOL     OW  197   2.187   1.197   0.477  0.0344 -0.3302 -0.1203
   66SOL    HW1  198   2.200   1.280   0.423  0.3801 -1.2436 -1.5021
   66SOL    HW2  199   2.275   1.164   0.510 -0.1833  0.2694  1.1142
   67SOL     OW  200   1.727   1.697   0.430  0.0007  0.6751 -0.6359
   67SOL    HW1  201   1.706   1.601   0.410 -1.5150  1.0722 -1.0549
   67SOL    HW2  202   1.812   1.723   0.383  1.5839 -0.9889  1.1111
   68SOL     OW  203   0.004   1.494   1.813  0.9166  0.0481 -0.5582
   68SOL    HW1  204  -0.006   1.412   1.870  2.2846  0.5694  0.4789
   68SOL    HW2  205   0.052   1.470   1.729  3.0402  0.0846  0.5867
   69SOL     OW  206   2.284   0.630   0.045 -0.8687  0.5332 -0.0961
   69SOL    HW1  207   2.203   0.677   0.008 -2.6676 -1.9410  0.4563
   69SOL    HW2  208   2.340   0.598  -0.031 -1.1059  1.1222 -0.5315
   70SOL     OW  209   0.715   1.456   0.579  0.1258 -0.0167  0.3078
   70SOL    HW1  210   0.710   1.549   0.543 -2.2951  0.5156  1.8122
   70SOL    HW2  211   0.805   1.440   0.619  1.1334  1.0703 -1.4069
   71SOL     OW  212   1.834   1.888   0.212  0.0526 -0.1194 -0.2123
   71SOL    HW1  213   1.919   1.838   0.229  0.4486 -0.1022 -1.9301
   71SOL    HW2  214   1.759   1.822   0.203  0.3538 -0.3418 -1.2276
   72SOL     OW  215   2.116   1.559   0.026 -0.0485  0.0646 -0.4184
   72SOL    HW1  216   2.069   1.536  -0.059 -0.3979 -0.1440 -0.1743
   72SOL    HW2  217   2.212   1.533   0.020 -0.1043 -0.0763 -0.6991
   73SOL     OW  218   2.025   1.483   2.083  0.1283 -0.0218 -0.3992
   73SOL    HW1  219   2.048   1.566   2.032  0.3659 -0.7526 -1.5266
   73SOL    HW2  220   1.979   1.418   2.022 -0.7264 -0.4361  0.6515
   74SOL     OW  221   2.011   1.711   0.332 -0.6149 -0.1640 -0.3342
   74SOL    HW1  222   2.064   1.628   0.343 -2.0477 -1.0716 -0.0302
   74SOL    HW2  223   2.066   1.780   0.284  0.8638 -0.9879  0.1285
   75SOL     OW  224   2.179   2.093   0.143 -0.3057 -0.2497  0.3666
   75SOL    HW1  225   2.161   1.995   0.143  0.0382 -0.3348  1.5299
   75SOL    HW2  226   2.094   2.142   0.166 -0.6889 -0.2067 -1.0769
   76SOL     OW  227   1.754   1.897   1.534 -0.0931 -0.6232 -0.1776
   76SOL    HW1  228   1.701   1.820   1.569 -1.1772 -0.3604 -1.1644
   76SOL    HW2  229   1.822   1.865   1.469  1.5568 -1.0522  1.6771
   77SOL     OW  230   1.116   0.346   0.538  0.6674  0.5798  0.2574
   77SOL    HW1  231   1.027   0.367   0.498  0.1137  0.7905  1.5587
   77SOL    HW2  232   1.132   0.405   0.617  2.0307  0.6456 -0.0461
   78SOL     OW  233   0.532   1.415   1.371  0.2922 -0.2427  0.1129
   78SOL    HW1  234   0.470   1.372   1.305 -0.7241 -0.2866  1.0703
   78SOL    HW2  235   0.524   1.515   1.364 -0.0031 -0.2494  0.3347
   79SOL     OW  236   0.593   2.050   0.923 -0.2508 -0.1610 -0.0326
   79SOL    HW1  237   0.667   2.047   0.856  0.3950 -0.1547  0.6650
   79SOL    HW2  238   0.520   2.111   0.890  0.0723 -0.1323 -0.7017
   80SOL     OW  239   2.088   2.265   1.369  0.4066  0.0645  0.2159
   80SOL    HW1  240   2.146   2.265   1.450  0.8660 -1.5237 -0.0851
   80SOL    HW2  241   1.998   2.303   1.392  0.2471 -1.1111  1.6820
   81SOL     OW  242   1.285   0.352   1.339 -0.2400 -0.1750  0.5973
   81SOL    HW1  243   1.191   0.322   1.328 -0.4543 -0.4139  2.6807
   81SOL    HW2  244   1.286   0.444   1.379  0.4477  1.1092 -2.0801
   82SOL     OW  245   0.323   0.817   0.552 -0.3174  0.3471 -0.1100
   82SOL    HW1  246   0.417   0.797   0.581 -0.2263  0.2225 -0.4891
   82SOL    HW2  247   0.263   0.815   0.632 -0.1254 -0.3535  0.0229
   83SOL     OW  248   1.035   1.509   1.532 -0.4857  0.2649 -0.1650
   83SOL    HW1  249   1.063   1.529   1.626  0.5119  0.4452 -0.4922
   83SOL    HW2  250   0.992   1.419   1.529  1.9147 -0.9527  0.0324
   84SOL     OW  251   0.113   0.441   0.837  0.1226  0.0888  0.0230
   84SOL    HW1  252   0.092   0.456   0.933 -1.5757 -0.8391 -0.1576
   84SOL    HW2  253   0.146   0.348   0.823 -0.6596 -0.1353 -0.4162
   85SOL     OW  254   1.758   1.146   1.747  0.3018  0.2064  0.1721
   85SOL    HW1  255   1.733   1.133   1.652  3.3274 -1.9857 -0.4548
   85SOL    HW2  256   1.690   1.101   1.806  1.2574 -3.6098 -1.3127
   86SOL     OW  257   1.259   0.905   0.810 -0.0759  0.0986  0.4164
   86SOL    HW1  258   1.340   0.897   0.867 -0.5517 -0.3877  1.0448
   86SOL    HW2  259   1.183   0.855   0.853 -0.5099 -0.0737 -0.5155
   87SOL     OW  260   0.233   1.650   2.268  0.5798 -0.3052  0.1918
   87SOL    HW1  261   0.181   1.719   2.319 -0.2284 -0.6873 -0.1116
   87SOL    HW2  262   0.330   1.675   2.270  0.5257 -0.0948  1.5801
   88SOL     OW  263   2.109   1.266   0.855 -0.1704 -0.6395  0.3365
   88SOL    HW1  264   2.147   1.231   0.940 -0.3581  1.9151  1.5548
   88SOL    HW2  265   2.169   1.336   0.817 -0.8025 -0.7141 -0.8665
   89SOL     OW  266   2.308   0.400   0.185  0.2495 -0.0265 -1.0053
   89SOL    HW1  267   2.294   0.482   0.129 -2.1987 -0.1877 -0.7115
   89SOL    HW2  268   2.362   0.425   0.265 -2.5723  2.0329  0.4443
   90SOL     OW  269   1.449   0.149   0.736  0.1694 -0.2433 -0.3391
   90SOL    HW1  270   1.503   0.184   0.660  1.1667 -0.3132  0.3190
   90SOL    HW2  271   1.388   0.221   0.770  1.3668  0.5021  0.2603
   91SOL     OW  272   1.657   2.297   0.574  0.6882  0.2165  0.0917
   91SOL    HW1  273   1.660   2.223   0.507  2.0324  0.9282 -0.6833
   91SOL    HW2  274   1.599   2.371   0.540  1.5065  0.6523 -0.4207
   92SOL     OW  275   0.049   0.460   1.106  0.4183  0.9667  0.4058
   92SOL    HW1  276   0.118   0.400   1.146  0.3837  1.2318  0.8670
   92SOL    HW2  277  -0.025   0.474   1.171  1.0186  2.5174  0.7948
   93SOL     OW  278   2.222   0.052   0.366  0.0411  0.9937 -0.1569
   93SOL    HW1  279   2.144   0.057   0.304 -1.7653 -0.9165  1.8278
   93SOL    HW2  280   2.206   0.112   0.444 -1.0985 -1.7513  1.8690
   94SOL     OW  281   0.862   1.228   1.319 -0.1602  0.0435  0.4209
   94SOL    HW1  282   0.820   1.137   1.315  0.7650 -0.3681 -1.7447
   94SOL    HW2  283   0.801   1.295   1.276  2.0458 -1.0165 -5.4085
   95SOL     OW  284   2.054   0.964   1.802 -0.0674 -0.0847 -0.0739
   95SOL    HW1  285   2.103   0.920   1.726 -0.1767 -1.0023  0.3803
   95SOL    HW2  286   2.120   0.994   1.871 -0.1053 -1.0850  0.4145
   96SOL     OW  287   2.128   0.363   1.947  0.4529 -0.2212  0.6022
   96SOL    HW1  288   2.128   0.357   1.848  0.9616 -1.9004  0.6701
   96SOL    HW2  289   2.124   0.459   1.975 -1.7482  0.2184 -0.9988
   97SOL     OW  290   1.960   1.862   2.230  0.3291  0.3252  0.3788
   97SOL    HW1  291   1.934   1.951   2.193 -1.0725 -0.2149 -0.0064
   97SOL    HW2  292   1.880   1.802   2.232  1.4882 -1.3293 -0.5125
   98SOL     OW  293   0.578   1.500   1.076  0.1759 -0.1095  0.6493
   98SOL    HW1  294   0.646   1.428   1.091  0.7166  0.0325 -0.9508
   98SOL    HW2  295   0.487   1.458   1.070  0.4033 -0.5823  0.4343
   99SOL     OW  296   1.973   1.900   1.811  0.0607  0.5195  0.9257
   99SOL    HW1  297   1.991   1.975   1.748 -0.8347 -0.3586 -0.4302
   99SOL    HW2  298   1.949   1.936   1.901 -0.3321  1.8476  0.3062
  100SOL     OW  299   0.663   1.201   1.536 -0.0530 -0.1911  0.5908
  100SOL    HW1  300   0.760   1.224   1.549  0.4082 -1.5923 -0.0891
  100SOL    HW2  301   0.620   1.271   1.479  0.4990  0.5615  1.0803
  101SOL     OW  302   0.699   1.780   2.169  0.1790  0.4030  0.1739
  101SOL    HW1  303   0.608   1.795   2.208  0.2589  1.1106  0.1022
  101SOL    HW2  304   0.690   1.748   2.075  0.0027  0.2864  0.2297
  102SOL     OW  305   1.190   1.478   0.094  0.2881  0.1014 -0.1853
  102SOL    HW1  306   1.094   1.483   0.124  0.0619  0.3555 -0.9303
  102SOL    HW2  307   1.250   1.484   0.174 -0.2893  1.2913  0.1862
  103SOL     OW  308   2.001   1.976   0.942  0.0352 -0.2688 -0.2609
  103SOL    HW1  309   1.982   1.993   0.846 -1.5808  0.3738  0.1355
  103SOL    HW2  310   1.921   2.001   0.997  1.5377  1.0924  1.4357
  104SOL     OW  311   1.739   1.530   0.920 -0.3843 -0.2546 -0.1514
  104SOL    HW1  312   1.656   1.576   0.889 -1.4517 -0.3747  2.3074
  104SOL    HW2  313   1.817   1.592   0.911 -0.9286  0.3143 -1.2701
  105SOL     OW  314   1.937   0.748   0.897 -0.0102  0.1484 -0.2842
  105SOL    HW1  315   1.950   0.846   0.914 -1.4643  0.2450  0.3718
  105SOL    HW2  316   2.024   0.701   0.910  1.0781  1.5162 -2.0861
  106SOL     OW  317   1.106   0.260   1.734  0.2550  0.3182 -0.0843
  106SOL    HW1  318   1.169   0.217   1.800  0.4045  0.2281 -0.2816
  106SOL    HW2  319   1.061   0.338   1.776  0.2406  0.1714  0.1719
  107SOL     OW  320   1.696   1.000   0.566  0.1738 -0.0617 -0.6111
  107SOL    HW1  321   1.701   1.098   0.585  0.1448 -0.3593  1.0851
  107SOL    HW2  322   1.787   0.959   0.576 -0.5508 -1.0885  4.3936
  108SOL     OW  323   0.393   1.124   0.545 -0.3391  0.5913 -0.7320
  108SOL    HW1  324   0.380   1.025   0.546 -0.4830  0.6112 -0.3471
  108SOL    HW2  325   0.486   1.146   0.516 -1.0297  0.4278 -3.2725
  109SOL     OW  326   0.149   0.087   1.405  0.0667 -0.2482  0.2529
  109SOL    HW1  327   0.105   0.129   1.485  0.3091 -1.4065  1.0151
  109SOL    HW2  328   0.247   0.076   1.423  0.2532  0.1221 -0.4911
  110SOL     OW  329   0.845   1.899   1.573 -0.0870 -0.1074 -0.1173
  110SOL    HW1  330   0.758   1.948   1.578 -0.6864 -1.1149 -0.4644
  110SOL    HW2  331   0.903   1.943   1.505 -1.0845 -0.5706 -1.3048
  111SOL     OW  332   1.398   0.380   1.082 -0.2147  0.6235 -0.3023
  111SOL    HW1  333   1.497   0.396   1.083 -0.2090  0.7212  1.7741
  111SOL    HW2  334   1.374   0.311   1.150 -1.7428  1.8408  0.4586
  112SOL     OW  335   1.271   2.325   0.347  0.3584 -0.5794  0.0765
  112SOL    HW1  336   1.228   2.353   0.261  2.5321  0.0211 -0.8969
  112SOL    HW2  337   1.288   2.227   0.346 -1.8483 -1.0136  0.9227
  113SOL     OW  338   2.043   2.151   1.713 -0.4362 -0.1587  0.1252
  113SOL    HW1  339   2.107   2.220   1.680 -1.9757  0.7515 -1.0782
  113SOL    HW2  340   1.961   2.196   1.748 -2.3899 -1.3615 -2.6417
  114SOL     OW  341   0.413   2.105   1.801 -1.0143 -0.7370  0.1902
  114SOL    HW1  342   0.328   2.157   1.807  0.2142  1.4018  0.1238
  114SOL    HW2  343   0.408   2.026   1.863 -2.8696 -0.4546  0.4668
  115SOL     OW  344   0.693   0.374   0.150  0.3767 -0.0449  0.1193
  115SOL    HW1  345   0.637   0.376   0.068 -1.2784 -0.8220  1.1673
  115SOL    HW2  346   0.704   0.467   0.186 -1.8064 -0.0296  0.8668
  116SOL     OW  347   0.821   2.222   2.192 -0.2137  0.7156  0.2934
  116SOL    HW1  348   0.831   2.320   2.208 -2.5406  0.7994  1.6179
  116SOL    HW2  349   0.788   2.178   2.275 -0.4463 -1.0130 -0.6643
  117SOL     OW  350   1.107   0.192   1.008 -0.6132 -0.3161  0.4666
  117SOL    HW1  351   1.147   0.220   0.921  0.3399  2.1768  1.6283
  117SOL    HW2  352   1.012   0.164   0.993 -0.4697  0.0410 -1.3574
  118SOL     OW  353   2.234   0.004   2.250 -0.3010  0.0303  0.5438
  118SOL    HW1  354   2.196   0.079   2.304  1.6128 -0.2448  2.4231
  118SOL    HW2  355   2.195  -0.083   2.281 -1.6828  0.0990 -0.8738
  119SOL     OW  356   1.822   0.694   1.411  0.2469  0.0286 -0.0206
  119SOL    HW1  357   1.754   0.628   1.441  0.9176 -0.2724  0.9007
  119SOL    HW2  358   1.793   0.736   1.325 -1.3494  0.2888  0.6158
  120SOL     OW  359   1.921   2.315   0.493  0.0114  0.2369 -0.2179
  120SOL    HW1  360   1.827   2.297   0.523  0.5786 -0.0384  1.4814
  120SOL    HW2  361   1.976   2.232   0.504  0.6227  0.5855 -0.5771
  121SOL     OW  362   2.208   2.185   0.585 -0.2450  0.0716 -0.0030
  121SOL    HW1  363   2.211   2.246   0.506 -0.0815 -1.1004 -0.9210
  121SOL    HW2  364   2.287   2.204   0.644  0.4810 -0.0669 -0.9053
  122SOL     OW  365   1.823   1.646   1.802  0.5008  0.2091 -0.5592
  122SOL    HW1  366   1.874   1.731   1.811 -0.2492  0.8649 -2.0576
  122SOL    HW2  367   1.741   1.662   1.746 -0.5993 -1.1173  0.5939
  123SOL     OW  368   1.953   0.569   1.990 -0.5125  0.0625  0.2307
  123SOL    HW1  369   1.892   0.497   1.957 -0.0524  0.1119 -0.7418
  123SOL    HW2  370   1.927   0.656   1.948 -0.7790  0.3926  1.0570
  124SOL     OW  371   0.475   1.756   1.108  0.1172 -0.5013 -0.1978
  124SOL    HW1  372   0.434   1.788   1.022 -0.1428 -0.6105 -0.1165
  124SOL    HW2  373   0.527   1.672   1.090 -1.0072 -1.2562 -0.0254
  125SOL     OW  374   1.727   0.906   2.120 -0.3321 -0.2619  0.8236
  125SOL    HW1  375   1.805   0.959   2.154  0.3944 -1.4085  1.0148
  125SOL    HW2  376   1.759   0.832   2.062 -1.2192 -1.1791  1.4586
  126SOL     OW  377   2.318   1.398   0.740  0.4019 -0.3327 -0.6460
  126SOL    HW1  378   2.360   1.446   0.817  1.2371 -0.4160 -1.0383
  126SOL    HW2  379   2.352   1.437   0.654 -1.8876  1.0136 -1.0483
  127SOL     OW  380   0.652   0.554   0.765 -0.1361 -0.0702  0.0916
  127SOL    HW1  381   0.591   0.519   0.836 -0.9407 -2.2214 -1.5722
  127SOL    HW2  382   0.721   0.485   0.744 -0.2403  0.3095 -1.5777
  128SOL     OW  383   0.575   1.299   0.399 -0.0620  0.8139  0.2943
  128SOL    HW1  384   0.627   1.354   0.465  0.1378  0.8540  0.1066
  128SOL    HW2  385   0.558   1.354   0.317  0.2773  0.5482  0.0413
  129SOL     OW  386   0.099   1.130   0.960  0.1518  0.2562  0.5344
  129SOL    HW1  387   0.157   1.204   0.928 -0.4194  0.5070  0.0627
  129SOL    HW2  388   0.032   1.165   1.026 -1.4556  0.6047 -1.1915
  130SOL     OW  389   0.739   1.645   1.510 -0.0431 -0.0022  0.3490
  130SOL    HW1  390   0.707   1.614   1.600  0.5755  0.8097  0.8621
  130SOL    HW2  391   0.783   1.735   1.519  0.3242 -0.0591 -0.7127
  131SOL     OW  392   0.966   0.466   1.862  0.2256 -0.1588 -0.4642
  131SOL    HW1  393   1.044   0.524   1.886 -0.4122  0.8982 -0.8981
  131SOL    HW2  394   0.887   0.492   1.917 -0.0065 -0.7717 -0.5040
  132SOL     OW  395   1.422   0.794   1.001 -0.3895 -0.1064  0.2136
  132SOL    HW1  396   1.477   0.723   0.958 -0.0714  0.1847  0.1397
  132SOL    HW2  397   1.342   0.752   1.044  0.4691 -0.6648  1.3106
  133SOL     OW  398   1.900   1.488   1.248  0.7389  0.2678  0.1622
  133SOL    HW1  399   1.861   1.396   1.245  1.8358 -0.2144  0.1619
  133SOL    HW2  400   1.965   1.494   1.323  1.6663  0.6271 -0.6456
  134SOL     OW  401   0.895   0.447   0.418  0.3578 -0.7883  0.5930
  134SOL    HW1  402   0.893   0.524   0.354  1.2544  0.0668  1.5735
  134SOL    HW2  403   0.802   0.427   0.449  0.1100 -0.1756  0.2621
  135SOL     OW  404   0.487   0.189   1.201 -0.0584  0.6464 -0.1259
  135SOL    HW1  405   0.541   0.191   1.284 -0.8638  0.6555  0.4149
  135SOL    HW2  406   0.449   0.097   1.188 -0.0122  0.6684 -0.4265
  136SOL     OW  407   1.078   1.518   1.846  0.3648  0.2882 -0.1206
  136SOL    HW1  408   1.151   1.456   1.818  0.5881  0.1752  0.6967
  136SOL    HW2  409   1.117   1.604   1.879  0.0111  1.6778 -3.0426
  137SOL     OW  410   2.222   1.824   1.630  0.1931 -0.2482 -0.4054
  137SOL    HW1  411   2.216   1.917   1.667 -0.0270 -0.1195 -0.7554
  137SOL    HW2  412   2.149   1.768   1.670  0.0096 -0.1332 -0.5766
  138SOL     OW  413   0.233   1.790   0.895 -0.2570 -0.0814  0.2493
  138SOL    HW1  414   0.136   1.766   0.900 -0.0821 -0.9258 -0.1698
  138SOL    HW2  415   0.248   1.853   0.819 -0.5699  0.6122  0.7433
  139SOL     OW  416   0.037   0.090   1.004  0.3702 -0.3845  0.0167
  139SOL    HW1  417   0.032   0.023   1.078  1.4105 -1.7585 -1.1107
  139SOL    HW2  418   0.094   0.167   1.033  1.1968 -1.1489  0.4788
  140SOL     OW  419   2.283   0.705   1.656  0.4871 -0.0245  0.4460
  140SOL    HW1  420   2.355   0.692   1.588 -0.1217 -1.4669  0.0532
  140SOL    HW2  421   2.208   0.757   1.616  1.2262  1.3986  0.8275
  141SOL     OW  422   1.644   0.065   0.945  0.1737 -0.2596  0.0651
  141SOL    HW1  423   1.691  -0.012   0.901  2.2379  0.6781  0.4713
  141SOL    HW2  424   1.583   0.109   0.880  0.4553 -1.0672 -0.7621
  142SOL     OW  425   1.318   0.941   1.545 -0.4418 -0.2383 -0.4161
  142SOL    HW1  426   1.252   0.872   1.576 -0.1071 -0.9927 -1.3256
  142SOL    HW2  427   1.351   0.916   1.454 -0.7009  1.4202 -0.9840
  143SOL     OW  428   0.042   2.013   1.815  0.4257 -0.0838 -0.9020
  143SOL    HW1  429   0.061   1.918   1.840 -0.5272 -0.0784 -0.1136
  143SOL    HW2  430   0.079   2.074   1.885 -0.1241  0.0518 -0.7216
  144SOL     OW  431   1.008   2.316   1.644 -0.4560 -0.2282 -0.1038
  144SOL    HW1  432   0.990   2.295   1.547 -2.5217  0.0293  0.1646
  144SOL    HW2  433   1.001   2.415   1.658 -3.9526 -0.4552  0.8564
  145SOL     OW  434   1.993   0.475   1.466  0.4845  0.8546  0.3228
  145SOL    HW1  435   1.950   0.394   1.424  0.0636 -0.2803  2.7828
  145SOL    HW2  436   1.940   0.556   1.442 -0.3746  0.1032 -0.4354
  146SOL     OW  437   1.917   0.234   0.411 -0.5217 -0.4880 -0.4268
  146SOL    HW1  438   1.961   0.153   0.450 -0.5914 -0.6437 -0.6718
  146SOL    HW2  439   1.853   0.206   0.340  0.3515 -0.1435 -1.3791
  147SOL     OW  440   0.156   0.039   0.232  0.1022 -0.4496  0.0950
  147SOL    HW1  441   0.071   0.039   0.284  0.3464 -1.1222  0.5011
  147SOL    HW2  442   0.208   0.121   0.254 -0.2877 -0.1990  0.0923
  148SOL     OW  443   1.231   1.191   1.933 -0.4327 -0.1278 -0.6863
  148SOL    HW1  444   1.269   1.255   1.866  3.2126 -2.6028 -1.2457
  148SOL    HW2  445   1.243   1.229   2.025 -0.5183  0.9557 -1.0982
  149SOL     OW  446   1.604   1.681   1.601 -0.2955  0.3265  0.3095
  149SOL    HW1  447   1.608   1.594   1.552  0.9544 -0.2134  1.3139
  149SOL    HW2  448   1.509   1.704   1.622 -0.5569 -2.5572  3.0114
  150SOL     OW  449   1.267   1.740   0.398 -0.6331 -0.0489  0.7113
  150SOL    HW1  450   1.269   1.703   0.491 -1.8243  1.3328  1.3259
  150SOL    HW2  451   1.357   1.778   0.376  0.6533 -3.1292  0.0476
  151SOL     OW  452   0.374   1.518   0.816 -0.3281  0.1214 -0.4049
  151SOL    HW1  453   0.352   1.614   0.835  0.6969  0.0433  1.4717
  151SOL    HW2  454   0.348   1.496   0.722 -3.7824  1.2656  0.1115
  152SOL     OW  455   1.328   1.739   1.648 -0.0761 -0.2207 -0.3457
  152SOL    HW1  456   1.337   1.720   1.746  0.6285 -1.0794 -0.5628
  152SOL    HW2  457   1.278   1.825   1.635 -0.1958 -0.1073  0.7609
  153SOL     OW  458   1.041   0.353   2.191 -0.0021 -0.0271 -0.0896
  153SOL    HW1  459   1.090   0.367   2.105  2.4260 -0.8592  1.0790
  153SOL    HW2  460   1.100   0.381   2.268 -0.3669 -3.3146  1.5349
  154SOL     OW  461   0.864   1.551   2.012  0.3564 -0.0427  0.6495
  154SOL    HW1  462   0.857   1.646   2.041 -0.4689 -0.2177  1.0655
  154SOL    HW2  463   0.942   1.540   1.950  0.9726  0.7283  1.2662
  155SOL     OW  464   2.175   0.177   0.592  0.1307  0.0592 -0.1391
  155SOL    HW1  465   2.115   0.134   0.659 -0.8210  0.9292 -0.4108
  155SOL    HW2  466   2.167   0.277   0.598 -0.0561  0.1615 -1.6089
  156SOL     OW  467   2.063   1.019   1.292  0.1037  0.5534  0.1133
  156SOL    HW1  468   1.972   1.061   1.288 -0.6025 -0.7870  1.1044
  156SOL    HW2  469   2.102   1.032   1.383 -0.0098 -0.6344  0.3566
  157SOL     OW  470   0.644   0.062   0.187  0.8837 -0.1247 -0.2696
  157SOL    HW1  471   0.664   0.094   0.280  0.1087  0.3212 -0.2474
  157SOL    HW2  472   0.642   0.141   0.125 -0.9005 -0.1103 -0.2413
  158SOL     OW  473   1.508   0.750   1.881 -0.1583 -0.5164  0.0426
  158SOL    HW1  474   1.562   0.747   1.797  0.3849 -1.2484  0.4154
  158SOL    HW2  475   1.524   0.837   1.928 -0.8212  0.1018 -0.8267
  159SOL     OW  476   0.062   1.490   0.985  0.4813 -0.4697  0.2659
  159SOL    HW1  477   0.152   1.487   1.027  0.7596 -1.8710 -0.3852
  159SOL    HW2  478  -0.002   1.539   1.045  1.5797  0.2520  0.8759
  160SOL     OW  479   1.552   2.022   0.908 -0.8130  0.0406 -0.0128
  160SOL    HW1  480   1.633   2.062   0.951 -1.2879  0.0694  0.8735
  160SOL    HW2  481   1.482   2.093   0.897 -0.5556  0.1328 -1.2299
  161SOL     OW  482   0.124   1.837   0.115 -0.1591 -0.0928  0.0090
  161SOL    HW1  483   0.025   1.827   0.126 -0.3786 -0.3810 -1.8889
  161SOL    HW2  484   0.150   1.933   0.129 -0.4481 -0.2738  2.0493
  162SOL     OW  485   2.244   1.323   2.152  0.5462 -0.2095  0.0498
  162SOL    HW1  486   2.328   1.326   2.098  1.0634  1.9510  0.8657
  162SOL    HW2  487   2.181   1.394   2.119  0.3116  0.2209  1.3706
  163SOL     OW  488   2.261   1.986   1.012  0.4428  0.2312  0.1308
  163SOL    HW1  489   2.287   2.038   1.094  1.4637 -0.4810  0.2798
  163SOL    HW2  490   2.166   2.004   0.990  0.9631  2.8673 -0.3257
  164SOL     OW  491   1.404   1.851   1.099  0.5707  0.7734 -0.0369
  164SOL    HW1  492   1.441   1.933   1.057  1.2490  0.2157 -0.5427
  164SOL    HW2  493   1.435   1.845   1.194 -1.9083  2.6500  0.9997
  165SOL     OW  494   1.500   1.739   2.248 -0.2696  0.1669 -0.1650
  165SOL    HW1  495   1.580   1.760   2.190 -1.1045 -0.0936 -1.4600
  165SOL    HW2  496   1.457   1.655   2.216 -0.5002 -0.2288  1.1460
  166SOL     OW  497   0.698   1.943   1.166 -0.2781 -0.4074 -0.2096
  166SOL    HW1  498   0.697   1.986   1.075 -0.8988  1.4880  0.6465
  166SOL    HW2  499   0.605   1.915   1.190 -0.3629  0.3856  0.4116
  167SOL     OW  500   1.643   0.913   1.249 -0.0118 -0.2053 -0.0348
  167SOL    HW1  501   1.690   0.860   1.178  0.2801 -0.5395  0.3999
  167SOL    HW2  502   1.584   0.981   1.206  2.7619  1.9588 -0.6528
  168SOL     OW  503   1.510   1.896   1.360  0.4546  0.0254  0.0593
  168SOL    HW1  504   1.574   1.829   1.322  1.5257  0.7901  0.4601
  168SOL    HW2  505   1.509   1.888   1.460  0.8643  0.8306  0.1342
  169SOL     OW  506   0.783   2.147   0.524 -0.1051 -0.6642  0.4695
  169SOL    HW1  507   0.834   2.061   0.519  1.0144  0.0554 -1.5979
  169SOL    HW2  508   0.829   2.217   0.469 -1.0606  1.2555  1.9795
  170SOL     OW  509   1.444   1.012   0.418  0.1309 -0.2166 -1.0108
  170SOL    HW1  510   1.531   0.993   0.463 -1.5348 -1.9159  1.7850
  170SOL    HW2  511   1.449   0.982   0.322  2.6280 -0.1093 -0.9795
  171SOL     OW  512   0.788   2.164   0.120 -0.0588  0.5407 -0.1564
  171SOL    HW1  513   0.848   2.121   0.187 -0.9307  0.2547  0.4618
  171SOL    HW2  514   0.743   2.244   0.161 -1.1508 -0.0598 -0.1475
  172SOL     OW  515   0.064   0.871   0.866 -0.6400  0.4924  0.4928
  172SOL    HW1  516   0.022   0.834   0.948 -2.9498  0.0791 -0.7978
  172SOL    HW2  517   0.080   0.969   0.878 -1.2643  0.5062  1.3106
  173SOL     OW  518   0.133   0.626   1.452  0.4398  0.6677 -0.3943
  173SOL    HW1  519   0.078   0.577   1.384  1.3934  1.2542 -1.6370
  173SOL    HW2  520   0.221   0.581   1.462 -0.0459  0.0255  1.2117
  174SOL     OW  521   2.246   2.311   1.593  0.7759  0.1158 -0.5078
  174SOL    HW1  522   2.323   2.249   1.577  1.5555  0.4660  1.5889
  174SOL    HW2  523   2.281   2.402   1.614 -0.2595  0.5154 -0.4539
  175SOL     OW  524   0.477   1.702   1.355  0.5568  0.1020 -0.5183
  175SOL    HW1  525   0.567   1.702   1.398  0.7452  0.9080 -0.9000
  175SOL    HW2  526   0.484   1.738   1.262  0.3830 -2.7816 -1.7485
  176SOL     OW  527   1.717   2.109   0.374  0.0352 -1.0100  0.8674
  176SOL    HW1  528   1.770   2.031   0.340  0.6971 -0.4832  0.6718
  176SOL    HW2  529   1.658   2.144   0.302  1.4809  0.1441  0.1883
  177SOL     OW  530   0.852   0.989   2.108  0.3197 -0.7029 -0.2868
  177SOL    HW1  531   0.946   0.965   2.083  0.8816  0.4864  0.5498
  177SOL    HW2  532   0.798   1.003   2.026  1.3294  0.2216 -0.8275
  178SOL     OW  533   0.548   0.607   1.752 -0.1844 -0.3527  0.2831
  178SOL    HW1  534   0.450   0.623   1.741 -0.2910 -2.0171 -1.8713
  178SOL    HW2  535   0.566   0.563   1.840 -1.1146  1.4069  1.4163
  179SOL     OW  536   0.099   1.160   0.580 -0.3251 -0.7631 -0.4728
  179SOL    HW1  537   0.088   1.214   0.664 -0.7976  0.2034 -1.1329
  179SOL    HW2  538   0.195   1.136   0.568  0.0271  0.6237 -0.5634
  180SOL     OW  539   0.738   1.035   1.852 -0.0436 -0.9050 -0.0455
  180SOL    HW1  540   0.641   1.019   1.872 -0.3967  1.5161  0.5383
  180SOL    HW2  541   0.746   1.100   1.777  1.0882 -0.2243  0.6385
  181SOL     OW  542   1.851   1.292   0.955 -0.3021 -0.2572 -0.0366
  181SOL    HW1  543   1.822   1.386   0.972 -2.7165 -0.9696  0.1906
  181SOL    HW2  544   1.948   1.291   0.930  0.4205  2.0277  2.2425
  182SOL     OW  545   0.904   1.880   0.497 -0.3061  0.2286  0.8321
  182SOL    HW1  546   0.888   1.817   0.421 -0.5511  0.9191  0.3108
  182SOL    HW2  547   0.876   1.836   0.582  2.7068 -1.7202  0.9545
  183SOL     OW  548   1.533   1.971   1.950 -0.0827  0.3477 -0.3781
  183SOL    HW1  549   1.436   1.962   1.926  0.3677  2.2858 -3.4704
  183SOL    HW2  550   1.565   2.062   1.925  2.1611  0.4051  2.3193
  184SOL     OW  551   0.658   0.275   0.988  0.2278 -0.9030 -0.1931
  184SOL    HW1  552   0.592   0.264   1.062 -1.0035 -0.0219 -1.1126
  184SOL    HW2  553   0.746   0.303   1.025 -0.7302  0.9228  0.8735
  185SOL     OW  554   0.423   0.559   1.163  0.1170 -0.7085 -0.1167
  185SOL    HW1  555   0.466   0.498   1.229 -0.5932 -0.6149  0.4385
  185SOL    HW2  556   0.348   0.609   1.206  0.2220  0.0294 -0.7518
  186SOL     OW  557   1.231   0.386   0.055  0.0726  0.2881  0.0510
  186SOL    HW1  558   1.302   0.422  -0.006  0.4855 -1.1913 -0.3898
  186SOL    HW2  559   1.261   0.396   0.150  0.6047  0.2367 -0.1056
  187SOL     OW  560   2.048   1.644   0.831  0.3176 -0.2881  0.1947
  187SOL    HW1  561   2.023   1.677   0.922 -0.0402  1.2439 -0.4305
  187SOL    HW2  562   2.137   1.681   0.805 -0.5437  1.1388 -0.9305
  188SOL     OW  563   1.630   0.544   1.553  0.0848  0.0322 -0.1772
  188SOL    HW1  564   1.599   0.477   1.485  0.3393  0.4264 -0.6867
  188SOL    HW2  565   1.607   0.511   1.645 -0.8448 -0.2030 -0.4826
  189SOL     OW  566   0.749   1.413   2.235 -0.0824  0.4965  0.3644
  189SOL    HW1  567   0.783   1.439   2.145 -3.6449 -0.3517 -1.4178
  189SOL    HW2  568   0.770   1.317   2.252 -1.3922 -0.0231 -0.7244
  190SOL     OW  569   0.416   1.885   1.992 -0.0176  0.1406 -0.5079
  190SOL    HW1  570   0.508   1.923   1.991 -0.0637  0.3772  1.2550
  190SOL    HW2  571   0.365   1.924   2.069 -1.1077 -1.0882 -0.5808
  191SOL     OW  572   1.046   0.220   1.280 -0.2198 -0.1551 -0.8396
  191SOL    HW1  573   1.023   0.129   1.314  2.4197 -0.6370 -0.1173
  191SOL    HW2  574   1.057   0.217   1.180 -0.1971 -0.6197 -0.8246
  192SOL     OW  575   1.203   1.418   1.332  0.2523  0.0893 -0.5058
  192SOL    HW1  576   1.292   1.461   1.351 -0.4623  1.2835  0.2698
  192SOL    HW2  577   1.135   1.452   1.397 -1.0333  0.0528 -1.7758
  193SOL     OW  578   0.908   1.757   0.997 -0.4930 -0.3160 -0.5863
  193SOL    HW1  579   0.835   1.739   1.063  0.0600 -0.3153  0.0323
  193SOL    HW2  580   0.991   1.784   1.045 -0.3973  0.7906 -1.3436
  194SOL     OW  581   1.620   1.369   0.208  0.5546  0.2754  0.5893
  194SOL    HW1  582   1.679   1.360   0.288  0.5494  1.7304  0.7966
  194SOL    HW2  583   1.676   1.376   0.126  0.7499  2.1504  0.8351
  195SOL     OW  584   0.455   2.088   1.387  0.4748 -0.8920 -0.1999
  195SOL    HW1  585   0.365   2.045   1.385  0.8388 -1.6637 -1.4352
  195SOL    HW2  586   0.446   2.185   1.367 -0.0395 -1.1040 -1.0688
  196SOL     OW  587   1.260   1.294   2.195  0.5539 -0.2582 -0.2636
  196SOL    HW1  588   1.222   1.220   2.251  2.3640 -0.4992  0.7463
  196SOL    HW2  589   1.245   1.381   2.241 -0.3764 -0.1369 -0.7811
  197SOL     OW  590   2.145   1.825   0.109 -0.3313  0.6546 -0.1596
  197SOL    HW1  591   2.149   1.728   0.085 -0.5796  0.7418 -0.5493
  197SOL    HW2  592   2.097   1.876   0.038 -1.3448  0.8649  0.6400
  198SOL     OW  593   1.494   1.055   1.092 -0.5144  0.3203 -0.0082
  198SOL    HW1  594   1.428   1.123   1.124 -0.9192 -0.2451  0.3826
  198SOL    HW2  595   1.452   0.998   1.021  0.0977  1.0088 -0.9343
  199SOL     OW  596   2.215   1.039   0.221 -0.2741  0.1503 -0.2505
  199SOL    HW1  597   2.212   1.109   0.293  0.5467 -0.7988  0.7340
  199SOL    HW2  598   2.155   1.067   0.146 -1.1655  1.1787  0.7906
  200SOL     OW  599   1.285   1.580   1.053 -0.2013 -0.0345 -0.6587
  200SOL    HW1  600   1.335   1.507   1.099 -0.8807 -0.1486 -0.0718
  200SOL    HW2  601   1.335   1.666   1.063 -0.5912  0.0595  0.8174
  201SOL     OW  602   1.973   1.678   1.090  0.2174  0.2450 -0.4803
  201SOL    HW1  603   1.937   1.604   1.146 -0.0954  0.9025  0.1995
  201SOL    HW2  604   2.061   1.708   1.126 -0.1598  0.9219 -0.0937
  202SOL     OW  605   0.988   2.305   1.329 -0.0055 -0.1862  0.1475
  202SOL    HW1  606   1.066   2.253   1.293  0.6645  1.7953 -1.4679
  202SOL    HW2  607   0.905   2.250   1.322  0.5665 -0.8783 -2.0481
  203SOL     OW  608   2.139   1.697   1.924 -0.1143 -0.0641 -0.1697
  203SOL    HW1  609   2.121   1.782   1.873  1.9384  0.8963  0.5867
  203SOL    HW2  610   2.189   1.633   1.865 -1.3478 -0.6285 -0.6261
  204SOL     OW  611   1.094   1.173   0.037 -0.2678  0.3019 -0.3369
  204SOL    HW1  612   0.997   1.176   0.012 -0.2952 -0.0404 -0.2755
  204SOL    HW2  613   1.115   1.248   0.100 -0.5300  0.2807 -0.2236
  205SOL     OW  614   0.532   2.006   0.534  0.3066 -0.9892  0.0749
  205SOL    HW1  615   0.505   2.016   0.438  0.8458  0.1425  0.0275
  205SOL    HW2  616   0.617   2.055   0.550 -0.5706  0.1647  1.4769
  206SOL     OW  617   0.842   0.356   0.770  0.1178 -0.0200  0.3640
  206SOL    HW1  618   0.840   0.259   0.747  0.4704  0.0515  0.0081
  206SOL    HW2  619   0.887   0.369   0.858  1.9272 -0.0297 -0.5126
  207SOL     OW  620   0.785   2.135   1.351 -0.0140 -0.6820 -0.0367
  207SOL    HW1  621   0.707   2.152   1.410 -0.3253  1.0676 -0.8849
  207SOL    HW2  622   0.763   2.062   1.286 -0.3641 -1.2477  0.6997
  208SOL     OW  623   2.122   0.187   0.073  0.3351 -0.0680  0.5737
  208SOL    HW1  624   2.195   0.244   0.112  0.1328  1.1378 -0.7482
  208SOL    HW2  625   2.071   0.239   0.006 -0.7531 -1.4067  0.3193
  209SOL     OW  626   0.443   0.523   0.900  0.0001 -0.0621 -0.0435
  209SOL    HW1  627   0.432   0.523   1.000  0.2619 -0.2383 -0.0125
  209SOL    HW2  628   0.378   0.586   0.859 -0.8714 -0.8144  0.1551
  210SOL     OW  629   0.565   0.621   0.308  0.0284 -0.2779 -0.7781
  210SOL    HW1  630   0.659   0.653   0.299  0.4636 -1.0114  0.7932
  210SOL    HW2  631   0.502   0.691   0.276  0.9830  1.5801  1.1498
  211SOL     OW  632   0.932   1.276   1.575  0.4169  0.8422 -0.0163
  211SOL    HW1  633   0.913   1.258   1.478 -1.7975  1.2041  0.3054
  211SOL    HW2  634   0.997   1.208   1.609  0.2981 -0.0337 -1.4634
  212SOL     OW  635   0.494   0.916   1.848 -0.5903 -0.3690 -0.3401
  212SOL    HW1  636   0.410   0.903   1.900  0.6138 -2.3421  1.2427
  212SOL    HW2  637   0.533   0.827   1.824  1.2786  0.4962 -0.6651
  213SOL     OW  638   0.446   1.014   1.587 -0.1357 -0.0913 -0.2111
  213SOL    HW1  639   0.440   0.985   1.682 -1.1423 -1.0987 -0.5549
  213SOL    HW2  640   0.533   1.062   1.572  0.3647 -0.5651  1.0308
  214SOL     OW  641   1.854   0.680   0.265 -0.0389  0.2347  0.3184
  214SOL    HW1  642   1.911   0.598   0.270 -0.9999 -0.5695 -1.1549
  214SOL    HW2  643   1.779   0.672   0.331 -0.7552 -0.6187 -0.5596
  215SOL     OW  644   0.193   1.327   1.366 -0.4076  0.2829 -0.3300
  215SOL    HW1  645   0.211   1.376   1.451 -1.4228  1.9525 -1.0234
  215SOL    HW2  646   0.097   1.299   1.363 -0.3040 -0.0464 -0.7876
  216SOL     OW  647   0.032   1.186   1.618  0.2105  0.0251  0.2976
  216SOL    HW1  648   0.091   1.108   1.599 -0.2457 -0.5349  1.1202
  216SOL    HW2  649   0.088   1.269   1.625  0.7064 -0.2300 -0.4996
  217SOL     OW  650   1.474   1.468   2.156  0.5419  0.4977  0.1136
  217SOL    HW1  651   1.569   1.438   2.165  0.4540  0.0478 -0.4028
  217SOL    HW2  652   1.413   1.396   2.191  0.3292  0.0576 -1.1177
  218SOL     OW  653   0.838   0.738   2.286  0.4970  0.3430 -0.6544
  218SOL    HW1  654   0.930   0.716   2.317 -0.3175 -1.4563  0.6750
  218SOL    HW2  655   0.837   0.828   2.243  2.2095  1.9113  2.3480
  219SOL     OW  656   0.824   1.050   0.569 -0.1301 -0.0746 -0.2691
  219SOL    HW1  657   0.734   1.040   0.527 -0.5808  0.8518  0.4455
  219SOL    HW2  658   0.894   1.021   0.504 -0.8439  0.7048 -1.4274
  220SOL     OW  659   0.662   0.131   0.465 -0.1073  0.3277  0.0723
  220SOL    HW1  660   0.641   0.228   0.472 -2.5438 -0.1695  0.9467
  220SOL    HW2  661   0.725   0.105   0.538 -1.0426  0.9113  1.1208
  221SOL     OW  662   0.856   0.136   1.979  0.1121  0.8056 -0.1048
  221SOL    HW1  663   0.839   0.148   2.077  0.8368 -0.8625  0.2704
  221SOL    HW2  664   0.954   0.118   1.965 -0.3678 -1.6884 -0.7700
  222SOL     OW  665   0.167   0.096   2.248 -0.2248  0.5363  0.1146
  222SOL    HW1  666   0.178   0.128   2.342  0.3337 -0.1541  0.2897
  222SOL    HW2  667   0.096   0.026   2.245 -0.9694  1.2795 -0.1594
  223SOL     OW  668   2.236   1.747   1.140 -0.4624  0.3770 -0.4750
  223SOL    HW1  669   2.329   1.714   1.157 -0.6116  0.1632 -0.0788
  223SOL    HW2  670   2.240   1.826   1.079  0.0469  0.8809  0.1900
  224SOL     OW  671   1.357   1.212   1.508 -0.1456  0.1055  0.4838
  224SOL    HW1  672   1.370   1.113   1.507 -0.4510  0.0656 -0.1892
  224SOL    HW2  673   1.330   1.243   1.417 -0.8430  0.6954  0.8745
  225SOL     OW  674   1.962   2.070   0.668  0.2838 -0.2956 -0.1123
  225SOL    HW1  675   1.943   1.975   0.643 -0.2227 -0.0568 -0.6707
  225SOL    HW2  676   2.053   2.096   0.634  1.0396 -1.0045  1.2962
  226SOL     OW  677   0.775   1.246   1.021  0.4163  0.1524  0.0217
  226SOL    HW1  678   0.801   1.192   0.941  0.4589  0.2086 -0.0014
  226SOL    HW2  679   0.853   1.300   1.052  2.2026 -3.6599  3.1911
  227SOL     OW  680   1.445   0.402   2.213  0.3651  0.6329  0.5433
  227SOL    HW1  681   1.491   0.326   2.259  0.4129  1.6756  2.2875
  227SOL    HW2  682   1.509   0.445   2.148  0.3527 -0.7467 -0.4208
  228SOL     OW  683   1.845   0.787   1.899 -0.1363  0.3721  0.2480
  228SOL    HW1  684   1.799   0.764   1.814  0.2741  2.0614 -0.4598
  228SOL    HW2  685   1.904   0.867   1.886  1.2183 -0.3084  1.7013
  229SOL     OW  686   1.964   0.349   0.904  0.1767  0.5600  0.1944
  229SOL    HW1  687   1.891   0.293   0.865  1.1641 -0.4733 -0.2383
  229SOL    HW2  688   1.984   0.425   0.842 -2.1604  2.3161  1.4721
  230SOL     OW  689   0.579   1.988   0.202  0.0638  0.1956 -0.1614
  230SOL    HW1  690   0.655   2.047   0.174  0.5527  0.6212  1.9490
  230SOL    HW2  691   0.508   2.042   0.246 -1.4872 -0.2134 -2.0216
  231SOL     OW  692   1.491   0.153   0.449 -0.1561  0.2386  0.3938
  231SOL    HW1  693   1.415   0.109   0.401  0.7468 -0.6161 -0.3073
  231SOL    HW2  694   1.536   0.218   0.388 -0.2254  0.6384  0.7597
  232SOL     OW  695   2.321   0.769   1.110 -0.4266  0.0585 -0.9650
  232SOL    HW1  696   2.414   0.752   1.145 -0.4192 -1.1886 -1.5541
  232SOL    HW2  697   2.259   0.782   1.187  0.4817  2.5757 -0.5439
  233SOL     OW  698   1.410   0.130   1.370  0.3201 -0.1514  0.5000
  233SOL    HW1  699   1.359   0.214   1.384  1.0073  0.1228  1.3999
  233SOL    HW2  700   1.393   0.096   1.277 -2.5039 -0.7723  1.1609
  234SOL     OW  701   0.809   0.517   2.098  0.2631 -0.0683  0.0295
  234SOL    HW1  702   0.790   0.599   2.151  0.1978 -0.0050 -0.0927
  234SOL    HW2  703   0.842   0.445   2.159  0.5254  0.1135  0.1058
  235SOL     OW  704   0.334   1.471   0.549 -0.0092  0.1531 -0.0186
  235SOL    HW1  705   0.359   1.375   0.540  1.7266  0.2872  2.3944
  235SOL    HW2  706   0.398   1.528   0.498 -0.4514  0.0899 -0.6502
  236SOL     OW  707   1.247   2.005   1.919  0.4044 -0.2183 -0.1290
  236SOL    HW1  708   1.182   2.019   1.994 -0.2427 -0.6580 -0.5982
  236SOL    HW2  709   1.246   2.085   1.859  0.8068  0.0671  0.2409
  237SOL     OW  710   0.442   0.602   1.461  0.4683 -0.0453  0.8917
  237SOL    HW1  711   0.469   0.685   1.412  0.7035  0.8103  2.4182
  237SOL    HW2  712   0.508   0.583   1.533 -0.9957 -0.0395  2.2890
  238SOL     OW  713   0.938   1.508   0.274 -0.4014 -0.2672 -0.2519
  238SOL    HW1  714   0.876   1.578   0.310 -0.7598 -0.5741 -0.2633
  238SOL    HW2  715   0.972   1.452   0.349  0.6131  0.4830 -0.1251
  239SOL     OW  716   0.380   2.137   0.310 -0.6025 -0.1044 -0.7481
  239SOL    HW1  717   0.287   2.106   0.295 -0.9148  0.6235 -0.3938
  239SOL    HW2  718   0.378   2.222   0.364  0.2404  0.1249 -1.0644
  240SOL     OW  719   1.866   0.470   0.011 -0.7714 -0.8414 -0.4946
  240SOL    HW1  720   1.787   0.482   0.070 -0.9469 -3.0515 -0.1839
  240SOL    HW2  721   1.936   0.537   0.033 -1.9083  0.0865  0.3480
  241SOL     OW  722   0.287   1.960   0.684  0.6251  0.3683 -1.0189
  241SOL    HW1  723   0.270   2.039   0.743 -0.7210  0.2599 -1.2145
  241SOL    HW2  724   0.384   1.954   0.664  1.6440 -1.0678  3.2602
  242SOL     OW  725   1.368   2.232   0.829 -0.2139  0.0528 -0.2530
  242SOL    HW1  726   1.270   2.225   0.815 -0.4749  1.3427  0.7155
  242SOL    HW2  727   1.403   2.310   0.778  0.5986 -1.2585 -1.7946
  243SOL     OW  728   0.208   1.415   1.637  0.2510  0.0778  0.2458
  243SOL    HW1  729   0.292   1.387   1.682 -0.0320 -0.4695  0.4362
  243SOL    HW2  730   0.222   1.504   1.593  0.9098  0.0135  0.3176
  244SOL     OW  731   0.228   0.682   0.799 -0.1931 -0.4233 -0.1200
  244SOL    HW1  732   0.185   0.592   0.806  0.9184 -0.8836  1.2207
  244SOL    HW2  733   0.163   0.752   0.829 -0.3835 -0.9825  0.7919
  245SOL     OW  734   2.113   1.205   0.019 -0.6687 -0.0444  0.0688
  245SOL    HW1  735   2.171   1.263  -0.039 -1.7041 -0.1646 -1.1295
  245SOL    HW2  736   2.059   1.263   0.080 -3.6373  0.6437 -2.8756
  246SOL     OW  737   1.703   2.047   0.022  0.0935  1.0075  0.3775
  246SOL    HW1  738   1.771   2.072  -0.048 -1.2087  0.8102 -1.0280
  246SOL    HW2  739   1.749   2.004   0.099  1.5238  0.3887 -0.7569
  247SOL     OW  740   1.979   1.372   0.187  0.1827  0.1063  0.5346
  247SOL    HW1  741   2.028   1.454   0.157  0.3699  0.4957  1.8446
  247SOL    HW2  742   1.927   1.393   0.270 -0.2691 -0.9400  0.5283
  248SOL     OW  743   0.222   1.988   1.147 -0.6302  0.2788  0.0617
  248SOL    HW1  744   0.173   1.957   1.229 -1.6039 -0.3055 -0.7096
  248SOL    HW2  745   0.228   1.912   1.082 -0.4701  0.9228 -0.6809
  249SOL     OW  746   1.125   1.446   0.486  0.2946  0.7431 -0.4103
  249SOL    HW1  747   1.158   1.360   0.449 -1.0453  0.4025 -0.8667
  249SOL    HW2  748   1.193   1.484   0.549 -0.0679 -1.8466  1.7160
  250SOL     OW  749   1.094   1.024   0.369  0.2684  0.3048  0.4870
  250SOL    HW1  750   1.165   0.994   0.305  1.3819  0.2280  1.7331
  250SOL    HW2  751   1.111   0.985   0.459 -2.3099 -1.0971  0.4652
  251SOL     OW  752   1.634   1.687   0.138  0.3071  0.1237  0.7993
  251SOL    HW1  753   1.588   1.605   0.174 -0.2210  0.4010  0.7714
  251SOL    HW2  754   1.596   1.708   0.048  1.1344 -0.1651  0.3733
  252SOL     OW  755   0.058   0.684   0.522 -0.5221 -0.2010 -0.6583
  252SOL    HW1  756   0.120   0.636   0.460  0.3150  1.7919 -1.4117
  252SOL    HW2  757   0.102   0.767   0.557 -0.5828 -1.6045  3.3529
  253SOL     OW  758   0.720   1.007   1.202  0.2079 -0.5567 -0.0125
  253SOL    HW1  759   0.725   1.091   1.149  2.8261 -1.3102 -1.1079
  253SOL    HW2  760   0.675   0.936   1.148  2.0901 -1.0791 -0.9652
  254SOL     OW  761   0.813   0.682   1.071  0.0545 -0.4967 -0.0470
  254SOL    HW1  762   0.855   0.747   1.134  0.8203 -1.3032  0.3035
  254SOL    HW2  763   0.736   0.725   1.025  0.1355  0.4417  0.6626
  255SOL     OW  764   1.561   2.193   1.213 -0.0121  0.2774  0.0631
  255SOL    HW1  765   1.586   2.256   1.286  1.2737 -1.8802  1.5450
  255SOL    HW2  766   1.461   2.194   1.201 -0.2453  0.6667  1.8414
  256SOL     OW  767   0.221   1.169   2.201  0.3146 -0.6228 -0.5732
  256SOL    HW1  768   0.298   1.228   2.179  1.8695 -2.1938  0.4016
  256SOL    HW2  769   0.200   1.176   2.299 -0.6830 -0.3581 -0.7894
  257SOL     OW  770   1.933   0.893   0.608  0.0512 -0.2832  0.0639
  257SOL    HW1  771   1.980   0.934   0.686 -0.6458  1.7428 -0.5284
  257SOL    HW2  772   1.986   0.815   0.574  1.9554  0.7168  0.6232
  258SOL     OW  773   1.152   0.766   1.677  0.4877  0.3450 -0.3215
  258SOL    HW1  774   1.055   0.789   1.670  0.4890  0.4165 -0.0954
  258SOL    HW2  775   1.167   0.709   1.757  0.4962 -0.3864 -0.8286
  259SOL     OW  776   0.552   0.056   2.123 -0.6173  0.1765 -0.8152
  259SOL    HW1  777   0.498  -0.002   2.184 -2.3694  0.4937 -1.9918
  259SOL    HW2  778   0.631   0.006   2.089 -0.8171 -0.7225  0.0109
  260SOL     OW  779   0.058   0.817   0.232  0.4126  0.4387 -0.3798
  260SOL    HW1  780   0.017   0.745   0.176  1.9488 -1.3419  0.6680
  260SOL    HW2  781  -0.003   0.896   0.236 -2.8836 -1.9770  1.0183
  261SOL     OW  782   1.304   0.376   0.829 -0.2146  0.4140 -0.0946
  261SOL    HW1  783   1.319   0.366   0.928 -1.7676 -0.9946  0.0576
  261SOL    HW2  784   1.217   0.423   0.814 -0.0284  0.5355 -0.7867
  262SOL     OW  785   0.884   1.854   1.834  0.3462  0.1412 -0.1205
  262SOL    HW1  786   0.918   1.942   1.868  0.8330 -0.1444  0.1500
  262SOL    HW2  787   0.883   1.855   1.734 -0.3290  0.7042 -0.1116
  263SOL     OW  788   0.537   1.099   2.312 -0.3651  0.3488  0.3608
  263SOL    HW1  789   0.503   1.134   2.399 -0.2536  2.2214 -0.3229
  263SOL    HW2  790   0.503   1.155   2.237  1.9573  0.6437 -0.5642
  264SOL     OW  791   1.118   0.930   1.994 -0.6241  0.2543 -0.1401
  264SOL    HW1  792   1.177   0.854   1.966 -0.0618  0.4475  0.5077
  264SOL    HW2  793   1.155   1.016   1.958 -1.9095  0.1328 -1.9064
  265SOL     OW  794   2.038   0.786   1.565 -0.4009  0.3424  0.2056
  265SOL    HW1  795   1.973   0.791   1.641 -0.4467  0.2237  0.1733
  265SOL    HW2  796   1.990   0.761   1.481 -0.6021  1.8858 -0.1730
  266SOL     OW  797   1.189   1.956   1.552 -0.1686 -0.3165 -1.2143
  266SOL    HW1  798   1.120   2.002   1.609  0.9016 -1.0196  0.7310
  266SOL    HW2  799   1.243   2.025   1.503  0.8262  0.5117  0.9442
  267SOL     OW  800   1.142   1.613   0.833 -0.6865 -0.2038 -0.4438
  267SOL    HW1  801   1.218   1.593   0.894 -0.2111 -0.5201 -1.1336
  267SOL    HW2  802   1.066   1.652   0.886 -0.0113  0.2114  0.2298
  268SOL     OW  803   0.027   0.207   1.623 -0.1598  0.2215 -0.2536
  268SOL    HW1  804   0.093   0.209   1.698 -0.5682 -0.0180  0.1230
  268SOL    HW2  805  -0.028   0.290   1.624 -2.0115 -0.9217  1.4419
  269SOL     OW  806   1.942   1.006   2.270 -0.0177  0.0888  1.1873
  269SOL    HW1  807   2.012   1.077   2.279 -1.1707  1.6984 -1.3934
  269SOL    HW2  808   1.896   0.993   2.357 -0.3819  3.2328  1.5669
  270SOL     OW  809   0.252   1.685   1.539 -0.3531 -0.1071  0.2214
  270SOL    HW1  810   0.339   1.682   1.491 -0.2032  0.9327  0.3929
  270SOL    HW2  811   0.200   1.766   1.510  0.6100  1.7257  3.1824
  271SOL     OW  812   0.214   0.182   1.813  0.5176  0.7796 -0.0026
  271SOL    HW1  813   0.189   0.218   1.903 -0.2270 -1.1543  0.6175
  271SOL    HW2  814   0.314   0.177   1.806  0.6485 -2.0750  2.1066
  272SOL     OW  815   2.238   1.864   2.163 -0.7664 -0.1375  0.0694
  272SOL    HW1  816   2.267   1.772   2.136  0.3613  0.5292 -1.1112
  272SOL    HW2  817   2.138   1.868   2.167 -0.8732 -1.0815 -1.1088
  273SOL     OW  818   0.196   0.968   1.505  0.3213 -0.4734  0.2699
  273SOL    HW1  819   0.287   1.003   1.529  1.4040 -1.1796 -2.4488
  273SOL    HW2  820   0.204   0.873   1.474 -1.6803 -1.2309  1.8319
  274SOL     OW  821   1.788   2.088   1.103 -0.0072 -0.4596 -0.2509
  274SOL    HW1  822   1.698   2.107   1.143  0.4317  0.4321  0.3633
  274SOL    HW2  823   1.822   2.171   1.058  0.3862 -0.8694 -0.7159
  275SOL     OW  824   0.289   0.059   0.675  0.3222  0.1632  0.2308
  275SOL    HW1  825   0.338   0.115   0.742  2.1771 -1.3564  0.2448
  275SOL    HW2  826   0.341   0.058   0.589  0.3887 -1.5571  0.2628
  276SOL     OW  827   1.482   2.101   2.172  0.5963 -0.0660  0.1329
  276SOL    HW1  828   1.539   2.064   2.246  0.4093 -0.1303  0.2446
  276SOL    HW2  829   1.500   2.051   2.088  0.6981 -0.0925  0.1696
  277SOL     OW  830   1.193   0.107   1.976  0.6275 -0.2036 -0.6695
  277SOL    HW1  831   1.203   0.060   2.064  2.3185  1.0275 -0.1462
  277SOL    HW2  832   1.206   0.042   1.902  0.2219 -1.0700 -0.0002
  278SOL     OW  833   2.133   0.218   1.076 -0.0480  0.3683  0.1159
  278SOL    HW1  834   2.223   0.201   1.036 -0.0266  2.1420 -0.6646
  278SOL    HW2  835   2.088   0.292   1.026 -1.2087  0.7255  1.6332
  279SOL     OW  836   2.256   1.322   1.363  0.6752 -0.4604 -0.1737
  279SOL    HW1  837   2.223   1.290   1.451 -0.3485 -0.7343 -0.6460
  279SOL    HW2  838   2.270   1.421   1.366 -1.4464 -0.1068 -0.3173
  280SOL     OW  839   0.853   1.838   0.230 -0.9147  0.0126 -0.3927
  280SOL    HW1  840   0.866   1.769   0.159  0.1314 -1.4974  1.2152
  280SOL    HW2  841   0.755   1.858   0.240 -1.2989 -1.7731 -0.3927
  281SOL     OW  842   1.378   1.235   0.106  0.1499  0.0464 -0.3255
  281SOL    HW1  843   1.459   1.264   0.157 -0.0390 -0.1315  0.0800
  281SOL    HW2  844   1.382   1.271   0.013 -0.2172  1.6407  0.2343
  282SOL     OW  845   1.488   1.890   0.371  0.0338  0.5632  0.2791
  282SOL    HW1  846   1.535   1.887   0.459 -0.6520 -1.9473  0.6352
  282SOL    HW2  847   1.536   1.831   0.306  0.2189  1.9672 -0.9218
  283SOL     OW  848   1.201   1.165   0.774 -0.2351 -0.7720  0.0587
  283SOL    HW1  849   1.237   1.073   0.789 -0.6606 -1.1600 -1.1172
  283SOL    HW2  850   1.101   1.161   0.768 -0.2130 -0.3724 -0.7691
  284SOL     OW  851   2.277   1.978   0.415  0.1363 -0.5764  0.3731
  284SOL    HW1  852   2.283   2.020   0.324 -2.1474 -2.0802 -0.5911
  284SOL    HW2  853   2.233   2.042   0.478  0.4261 -0.0310  0.0276
  285SOL     OW  854   0.409   0.063   0.444  0.8050 -0.3341  0.0437
  285SOL    HW1  855   0.379   0.128   0.374  1.4421 -2.7098 -2.6228
  285SOL    HW2  856   0.507   0.071   0.457  1.1648 -1.7456 -1.5005
  286SOL     OW  857   2.206   0.186   1.336  0.3643  0.3684 -0.8470
  286SOL    HW1  858   2.243   0.117   1.398 -0.9041  1.0257  0.7042
  286SOL    HW2  859   2.191   0.144   1.246  1.8728 -0.7126 -0.6310
  287SOL     OW  860   0.857   0.088   0.658  0.1620  0.4633  0.2835
  287SOL    HW1  861   0.860   0.051   0.751  0.1768 -0.1637  0.0369
  287SOL    HW2  862   0.949   0.116   0.630  0.4269 -0.7566 -0.1010
  288SOL     OW  863   0.275   0.654   1.774  0.0088 -0.3161  0.2911
  288SOL    HW1  864   0.197   0.593   1.762 -1.0884  1.2940 -1.2483
  288SOL    HW2  865   0.255   0.721   1.846 -0.7242  1.0703 -1.1546
  289SOL     OW  866   0.332   1.735   0.309 -0.2238  0.9650  0.0283
  289SOL    HW1  867   0.304   1.784   0.226 -0.6092 -0.2928 -0.6090
  289SOL    HW2  868   0.265   1.752   0.381 -2.3434 -1.3564 -1.2443
  290SOL     OW  869   0.697   0.506   1.336  0.2767 -0.4250 -0.2450
  290SOL    HW1  870   0.715   0.579   1.270  1.4559  0.5311  1.0832
  290SOL    HW2  871   0.716   0.539   1.428 -0.0714 -2.1340  0.4691
  291SOL     OW  872   0.676   0.235   1.784 -0.0498  0.1668 -0.2477
  291SOL    HW1  873   0.647   0.303   1.851 -2.8659 -0.4418 -0.7025
  291SOL    HW2  874   0.765   0.198   1.810  0.0026  1.5987  1.8334
  292SOL     OW  875   1.100   1.725   1.391  0.6513 -0.1649  0.3544
  292SOL    HW1  876   1.072   1.651   1.451  0.4399 -1.2927 -1.0860
  292SOL    HW2  877   1.150   1.794   1.443  2.0741 -1.9801  1.4716
  293SOL     OW  878   1.511   1.037   1.835  0.2687  0.0355 -0.1315
  293SOL    HW1  879   1.432   1.021   1.777  0.7945 -0.0186 -0.8390
  293SOL    HW2  880   1.486   1.019   1.930 -0.9243  1.2255 -0.1770
  294SOL     OW  881   1.844   1.210   1.251 -0.4717  0.0645 -0.0056
  294SOL    HW1  882   1.754   1.186   1.289 -1.1856  0.3330 -1.4781
  294SOL    HW2  883   1.844   1.195   1.152  0.9688  0.5060 -0.0953
  295SOL     OW  884   1.060   2.083   2.129  0.5664  0.0149  0.7510
  295SOL    HW1  885   1.098   2.025   2.201  0.5904  2.3125  2.6912
  295SOL    HW2  886   0.972   2.120   2.158 -1.3116 -1.8842 -1.9759
  296SOL     OW  887   0.023   0.802   1.942  0.1128  0.1063  0.0842
  296SOL    HW1  888  -0.015   0.788   1.850 -0.6490 -2.3101  0.7057
  296SOL    HW2  889  -0.045   0.850   1.998 -0.4140 -0.5936  0.0553
  297SOL     OW  890   2.101   0.691   0.446  0.0302 -0.1827 -0.0985
  297SOL    HW1  891   2.079   0.632   0.368  0.3487  0.3027 -0.5647
  297SOL    HW2  892   2.200   0.704   0.451  0.3136 -2.4598  2.0582
  298SOL     OW  893   0.513   2.252   1.115  0.3271 -0.1377  0.2661
  298SOL    HW1  894   0.585   2.184   1.100  0.2406 -0.2385  0.3042
  298SOL    HW2  895   0.431   2.226   1.065  0.0088 -0.5266  0.9664
  299SOL     OW  896   1.740   1.034   0.991 -0.7420 -0.2035 -0.5290
  299SOL    HW1  897   1.659   1.049   1.047  0.0970 -1.7249  1.1827
  299SOL    HW2  898   1.786   1.121   0.975 -0.8135  0.2469  1.4780
  300SOL     OW  899   0.990   0.379   1.516  0.5618  0.0865 -0.0017
  300SOL    HW1  900   0.981   0.319   1.437  0.7300  0.4999 -0.3406
  300SOL    HW2  901   1.036   0.330   1.590 -0.0958 -0.4773  0.0385
  301SOL     OW  902   2.302   2.260   1.207 -0.8185 -0.3764  0.4762
  301SOL    HW1  903   2.215   2.254   1.256  0.0836 -0.6740  2.1283
  301SOL    HW2  904   2.367   2.316   1.259 -0.0067 -0.1598 -0.7143
  302SOL     OW  905   1.119   1.919   0.230 -0.8156  0.7761 -0.5034
  302SOL    HW1  906   1.180   1.860   0.284  0.5550  3.6396  1.3437
  302SOL    HW2  907   1.024   1.897   0.252 -0.3257  0.1121  1.1312
  303SOL     OW  908   0.463   1.493   0.237  0.8557  0.1434  0.1971
  303SOL    HW1  909   0.419   1.578   0.263 -1.5936 -0.5653 -1.2334
  303SOL    HW2  910   0.453   1.479   0.138 -0.4848 -2.6106  0.6133
  304SOL     OW  911   1.843   0.970   0.189  0.5317 -0.2307  0.6402
  304SOL    HW1  912   1.852   1.054   0.243  1.3222 -0.6211  1.1453
  304SOL    HW2  913   1.899   0.898   0.231  0.0382 -0.9447  0.0895
  305SOL     OW  914   1.078   0.690   0.066 -0.2836  0.0138 -0.3335
  305SOL    HW1  915   1.117   0.681   0.158  0.2704  0.3710 -0.5274
  305SOL    HW2  916   1.144   0.655  -0.001 -0.7454 -0.3838 -0.5852
  306SOL     OW  917   1.250   2.010   0.593 -0.2595 -0.0898  0.1888
  306SOL    HW1  918   1.188   1.948   0.544 -1.2908 -0.0070  1.3481
  306SOL    HW2  919   1.344   1.976   0.584 -0.6592 -1.1326 -0.2422
  307SOL     OW  920   0.106   1.505   2.079  0.1354  0.3359  0.4098
  307SOL    HW1  921   0.105   1.551   1.990 -1.8430  0.8380  0.6288
  307SOL    HW2  922   0.155   1.562   2.145  0.2078  0.7461  0.0139
  308SOL     OW  923   0.928   1.175   0.787 -0.4972  0.3564 -0.3457
  308SOL    HW1  924   0.929   1.272   0.761  1.2544  0.1259 -1.3082
  308SOL    HW2  925   0.882   1.122   0.715 -0.2358  0.3255 -0.4926
  309SOL     OW  926   1.853   1.378   0.425 -0.2401  0.1184 -0.1040
  309SOL    HW1  927   1.899   1.442   0.487 -1.3038  1.5389 -0.7340
  309SOL    HW2  928   1.879   1.285   0.449  2.2257  0.8128  0.1382
  310SOL     OW  929   0.130   0.209   0.529 -0.0404  0.2688  0.3402
  310SOL    HW1  930   0.184   0.149   0.588  0.3971  1.3881  1.1042
  310SOL    HW2  931   0.034   0.203   0.554  0.1509  0.7846  1.2175
  311SOL     OW  932   2.135   2.114   2.007 -0.2480  0.6716  0.2341
  311SOL    HW1  933   2.205   2.046   1.987 -0.3976  0.8895 -1.0789
  311SOL    HW2  934   2.151   2.196   1.952 -0.8236  1.2101  0.8398
  312SOL     OW  935   0.412   0.079   1.502  0.1566  0.1186 -0.0968
  312SOL    HW1  936   0.397   0.078   1.600  0.2755  1.2294 -0.0485
  312SOL    HW2  937   0.492   0.135   1.481  1.6937 -2.1803 -0.6623
  313SOL     OW  938   1.123   1.810   1.141  0.3962 -0.2524  0.1422
  313SOL    HW1  939   1.098   1.754   1.220  1.3599 -0.7889  0.0823
  313SOL    HW2  940   1.223   1.814   1.133  0.3142 -0.1178 -0.9783
  314SOL     OW  941   1.238   0.100   0.079  1.0583 -0.3738 -0.8383
  314SOL    HW1  942   1.227   0.043  -0.002  0.1224 -1.1102 -0.2052
  314SOL    HW2  943   1.228   0.196   0.053 -0.2257 -0.6449 -1.4461
  315SOL     OW  944   1.626   0.399   0.224 -0.0449  0.6285 -0.3978
  315SOL    HW1  945   1.551   0.413   0.160 -1.8030 -0.2036  1.3761
  315SOL    HW2  946   1.629   0.476   0.289  0.1892  0.3193 -0.0400
  316SOL     OW  947   1.297   2.102   1.347 -0.9905  0.4251 -0.0763
  316SOL    HW1  948   1.236   2.091   1.268 -0.5515 -1.6074 -0.1924
  316SOL    HW2  949   1.374   2.040   1.338 -0.9474  0.1074  1.9721
  317SOL     OW  950   0.115   1.923   1.394 -0.2760 -0.4296 -0.5792
  317SOL    HW1  951   0.016   1.932   1.388 -0.2016 -0.2559 -1.8957
  317SOL    HW2  952   0.152   1.997   1.451 -0.7208  0.8257 -1.8499
  318SOL     OW  953   0.543   0.833   2.204  0.2156  0.7506 -0.0380
  318SOL    HW1  954   0.554   0.926   2.238 -0.1928  0.3793  1.1629
  318SOL    HW2  955   0.631   0.785   2.210 -0.0026  0.4691  1.2321
  319SOL     OW  956   1.240   0.990   2.251 -0.4620  0.1508 -0.6941
  319SOL    HW1  957   1.188   0.942   2.180 -0.7130 -1.2142  0.3839
  319SOL    HW2  958   1.181   1.059   2.294 -1.1674 -0.8660  0.0041
  320SOL     OW  959   1.536   2.003   0.631 -0.0815 -0.1904 -0.4059
  320SOL    HW1  960   1.619   2.046   0.595  0.5601 -0.2250  0.9652
  320SOL    HW2  961   1.544   1.993   0.730 -2.0375  0.4792 -0.1365
  321SOL     OW  962   1.342   2.096   0.251 -0.5911  0.0108  0.4219
  321SOL    HW1  963   1.253   2.064   0.219 -0.5053 -0.4060  0.5925
  321SOL    HW2  964   1.391   2.021   0.295  0.6262 -0.3068 -1.3338
  322SOL     OW  965   1.259   1.263   0.353  0.3895 -0.1119 -0.0165
  322SOL    HW1  966   1.227   1.179   0.396  1.1042  0.5203  1.8325
  322SOL    HW2  967   1.311   1.240   0.270  1.3745 -1.5686  0.9471
  323SOL     OW  968   1.192   1.936   2.300  0.1842  0.2216  0.2417
  323SOL    HW1  969   1.155   1.924   2.392 -0.0908  0.3569  0.1505
  323SOL    HW2  970   1.225   1.848   2.266 -1.0569 -0.1320 -0.0965
  324SOL     OW  971   2.173   0.998   2.084  0.1604  0.0534  0.0939
  324SOL    HW1  972   2.236   1.076   2.078  0.2160  0.1068  1.1619
  324SOL    HW2  973   2.114   1.009   2.164 -0.0463 -0.8472  0.0755
  325SOL     OW  974   0.666   2.001   1.957 -0.2197 -0.0707  0.7455
  325SOL    HW1  975   0.741   1.956   1.909 -0.4922  0.0294  0.2106
  325SOL    HW2  976   0.663   2.098   1.931  0.6633  0.3850  2.2606
  326SOL     OW  977   1.687   1.762   2.036 -0.3278  0.0712  0.6535
  326SOL    HW1  978   1.761   1.742   1.973 -0.9810 -0.6313  0.0906
  326SOL    HW2  979   1.639   1.845   2.006 -1.1638 -0.7238 -0.2864
  327SOL     OW  980   1.431   0.463   0.591  0.3778 -0.0657  0.6950
  327SOL    HW1  981   1.370   0.455   0.670  1.0646 -0.4356  1.2028
  327SOL    HW2  982   1.472   0.374   0.571  1.5115  0.3710  0.9971
  328SOL     OW  983   0.948   2.104   1.860 -0.2128 -0.2989  0.1641
  328SOL    HW1  984   0.997   2.136   1.940 -2.1038  0.7959  0.9619
  328SOL    HW2  985   0.964   2.167   1.784  1.9626 -1.5935 -0.5403
  329SOL     OW  986   0.594   0.419   0.496 -0.2517 -0.1813  0.4451
  329SOL    HW1  987   0.604   0.456   0.588  2.7038  0.7981 -0.1473
  329SOL    HW2  988   0.565   0.492   0.434 -0.9423 -0.5170  0.3659
  330SOL     OW  989   1.966   0.110   1.757 -0.5629  0.3305  0.4551
  330SOL    HW1  990   1.875   0.144   1.780 -0.4908 -0.1632  1.5065
  330SOL    HW2  991   2.020   0.098   1.840 -1.4312 -4.8101  0.6392
  331SOL     OW  992   1.111   2.206   0.738 -0.7349 -0.3283  0.1196
  331SOL    HW1  993   1.108   2.292   0.687 -1.4730 -0.7284 -0.5145
  331SOL    HW2  994   1.163   2.139   0.686  2.6582  0.5883  1.9816
  332SOL     OW  995   1.044   0.557   1.299  0.1731  0.4272  0.2203
  332SOL    HW1  996   1.027   0.491   1.372  1.5693  2.3494  2.4142
  332SOL    HW2  997   0.978   0.632   1.306 -1.1731 -0.4419 -2.0249
  333SOL     OW  998   1.945   1.097   0.414 -0.0773 -0.2602  0.4991
  333SOL    HW1  999   2.039   1.128   0.428  0.2384 -1.3463  0.8770
  333SOL    HW2 1000   1.928   1.017   0.470 -0.4614 -1.5455 -1.3778
  334SOL     OW 1001   1.263   0.372   1.994  0.4038  0.3617  0.1004
  334SOL    HW1 1002   1.339   0.369   2.058 -0.3726  0.0574  1.0323
  334SOL    HW2 1003   1.236   0.279   1.969 -0.8055  0.3964  1.1886
  335SOL     OW 1004   1.538   1.453   1.838 -0.2604  0.2246  0.5455
  335SOL    HW1 1005   1.508   1.384   1.904 -0.3206  0.2478  0.5429
  335SOL    HW2 1006   1.556   1.539   1.885  0.6833 -0.0341  0.6822
  336SOL     OW 1007   1.678   0.019   1.391 -0.7898  0.1326  0.0049
  336SOL    HW1 1008   1.753   0.069   1.349  0.0198 -1.9550 -1.2059
  336SOL    HW2 1009   1.593   0.068   1.378 -0.1841  0.7430 -1.9818
  337SOL     OW 1010   1.262   0.395   0.318 -0.4034 -0.4673 -0.3564
  337SOL    HW1 1011   1.215   0.357   0.398  0.9314 -0.1544  0.6102
  337SOL    HW2 1012   1.251   0.494   0.317 -1.7127 -0.5908 -1.4520
  338SOL     OW 1013   0.044   1.450   0.050 -0.0429 -0.3834  0.0482
  338SOL    HW1 1014   0.106   1.528   0.045 -1.0470  0.5138  1.0631
  338SOL    HW2 1015   0.053   1.394  -0.033  1.0420  0.5372 -0.4691
  339SOL     OW 1016   0.562   0.802   1.073  0.2383  0.3481  0.1946
  339SOL    HW1 1017   0.520   0.716   1.101 -0.9191  0.8811  0.1706
  339SOL    HW2 1018   0.493   0.859   1.028  0.7780  1.6004  0.8933
  340SOL     OW 1019   1.760   1.386   2.312  0.4070  0.5620 -0.0258
  340SOL    HW1 1020   1.836   1.357   2.371  0.7555  1.7117  0.1146
  340SOL    HW2 1021   1.740   1.314   2.246  2.4834  0.7099 -0.9052
  341SOL     OW 1022   0.441   1.336   1.727 -0.0681  0.3210 -0.3564
  341SOL    HW1 1023   0.484   1.293   1.648 -0.8149  1.1207 -1.2246
  341SOL    HW2 1024   0.511   1.370   1.789  0.6029  1.7987 -1.8449
  342SOL     OW 1025   1.242   0.698   1.920  0.2376 -0.1923 -0.2930
  342SOL    HW1 1026   1.337   0.722   1.898  0.2118 -0.6540 -0.9671
  342SOL    HW2 1027   1.241   0.633   1.996  0.4670 -0.2061 -0.2995
  343SOL     OW 1028   1.914   0.032   1.035 -0.5891 -0.0515 -0.0976
  343SOL    HW1 1029   2.001   0.072   1.062 -0.0940  1.6517 -3.7003
  343SOL    HW2 1030   1.844   0.103   1.030 -1.3946 -0.8309 -0.2594
  344SOL     OW 1031   1.080   1.070   1.649 -0.0912 -0.5532 -0.3153
  344SOL    HW1 1032   1.172   1.061   1.611  0.5599  3.7850 -0.3000
  344SOL    HW2 1033   1.086   1.103   1.743 -1.7202 -2.4098  0.4922
  345SOL     OW 1034   1.771   2.189   0.819  0.6298 -0.0449 -0.3273
  345SOL    HW1 1035   1.852   2.145   0.781  0.7884  0.8267 -1.0255
  345SOL    HW2 1036   1.708   2.213   0.745  0.1169  0.0489  0.1316
  346SOL     OW 1037   1.710   1.259   0.701 -0.2948 -0.1584  0.0807
  346SOL    HW1 1038   1.766   1.287   0.780  0.2333  0.9675 -0.6658
  346SOL    HW2 1039   1.621   1.303   0.706  0.4183  1.4834 -0.9191
  347SOL     OW 1040   0.316   0.787   0.292  0.0063  0.1603  0.1027
  347SOL    HW1 1041   0.222   0.797   0.258  0.3132  1.4206 -0.4143
  347SOL    HW2 1042   0.315   0.783   0.392 -0.6926 -1.0675  0.0636
  348SOL     OW 1043   0.312   1.263   0.862  0.2283  0.3554  0.5786
  348SOL    HW1 1044   0.339   1.215   0.779  0.0328 -2.1257  1.8550
  348SOL    HW2 1045   0.346   1.357   0.858 -0.5676  0.6227 -2.6499
  349SOL     OW 1046   2.032   1.469   0.590  0.0061 -0.5120  0.3816
  349SOL    HW1 1047   2.090   1.392   0.617 -0.9474 -1.6403 -0.6844
  349SOL    HW2 1048   2.016   1.528   0.669  2.1423 -0.4562  0.8294
  350SOL     OW 1049   0.059   1.183   1.942  0.0971 -0.1614 -0.1182
  350SOL    HW1 1050   0.101   1.188   2.033 -1.2297  0.7903  0.4640
  350SOL    HW2 1051   0.098   1.106   1.892 -1.5065 -2.8587  2.4702
  351SOL     OW 1052   2.105   0.978   0.841  0.0381  0.3488  0.0274
  351SOL    HW1 1053   2.086   1.075   0.823 -1.3481  0.4432  1.7149
  351SOL    HW2 1054   2.203   0.965   0.852  0.1712  1.7710  0.7708
  352SOL     OW 1055   0.329   0.698   2.222  0.7171  0.3778 -0.2098
  352SOL    HW1 1056   0.318   0.722   2.318 -0.6221  2.0581 -0.7268
  352SOL    HW2 1057   0.404   0.750   2.182  0.3348  0.7765 -0.4128
  353SOL     OW 1058   1.881   1.807   0.659 -0.2264  0.1226  0.5003
  353SOL    HW1 1059   1.812   1.762   0.603 -0.0666 -0.1950  0.5585
  353SOL    HW2 1060   1.937   1.738   0.705  0.2093  0.3807  0.3555
  354SOL     OW 1061   0.349   1.354   1.118  0.3955  0.1279  0.1246
  354SOL    HW1 1062   0.289   1.327   1.193  1.1158  1.0190  1.0611
  354SOL    HW2 1063   0.340   1.290   1.043 -1.1535 -0.1768  0.5390
  355SOL     OW 1064   1.062   0.729   0.970  0.3069  0.3125  0.2981
  355SOL    HW1 1065   0.969   0.706   0.998  0.1290  1.5429  0.7765
  355SOL    HW2 1066   1.126   0.666   1.014 -0.2260  0.1144  0.8075
  356SOL     OW 1067   0.441   1.096   0.238  0.1266  0.0965  0.0644
  356SOL    HW1 1068   0.445   1.179   0.294  1.0277 -0.4630  0.8695
  356SOL    HW2 1069   0.355   1.093   0.188 -0.4806  0.8763  1.0293
  357SOL     OW 1070   0.088   2.256   0.772 -0.0162  0.0752 -0.1802
  357SOL    HW1 1071   0.167   2.305   0.735 -0.0929  0.4337  0.1290
  357SOL    HW2 1072   0.050   2.307   0.849 -1.3028  0.5338 -1.0874
  358SOL     OW 1073   0.412   0.291   2.107 -0.4001 -0.0027 -0.3293
  358SOL    HW1 1074   0.312   0.295   2.109 -0.3991  0.3994 -0.8768
  358SOL    HW2 1075   0.442   0.198   2.128 -0.9465 -0.4975 -1.6158
  359SOL     OW 1076   1.702   0.782   1.672 -0.3053  0.6201 -0.7540
  359SOL    HW1 1077   1.691   0.705   1.609 -0.3610  0.0357 -0.0449
  359SOL    HW2 1078   1.688   0.868   1.623 -1.1555  0.1490 -1.3667
  360SOL     OW 1079   2.221   1.209   1.115 -0.5997 -0.2894  0.0598
  360SOL    HW1 1080   2.248   1.268   1.191  2.4320 -1.4154 -0.0063
  360SOL    HW2 1081   2.180   1.125   1.151 -0.1686 -0.3488  0.4175
  361SOL     OW 1082   2.153   0.610   0.970 -0.3583  0.1351 -0.1811
  361SOL    HW1 1083   2.232   0.667   0.992 -0.2074  0.3529 -1.2033
  361SOL    HW2 1084   2.177   0.514   0.979  0.3442  0.1712 -1.3851
  362SOL     OW 1085   1.649   1.237   2.085  0.5135 -0.5696  0.0840
  362SOL    HW1 1086   1.604   1.162   2.036 -1.3300  0.8927 -0.5744
  362SOL    HW2 1087   1.709   1.286   2.022  0.5935 -0.6112  0.1283
  363SOL     OW 1088   1.217   2.237   1.788 -0.4873  0.9276  0.4385
  363SOL    HW1 1089   1.300   2.241   1.733  0.3418  0.5789  1.6230
  363SOL    HW2 1090   1.137   2.252   1.729  0.4440  2.0694 -0.5868
  364SOL     OW 1091   1.970   0.168   1.463 -0.1978  0.0927 -0.2278
  364SOL    HW1 1092   2.054   0.196   1.417 -0.6162  0.4842 -0.7587
  364SOL    HW2 1093   1.986   0.163   1.562  0.1181  1.3930 -0.1949
  365SOL     OW 1094   2.199   0.448   0.609 -0.9105 -0.5083  0.0738
  365SOL    HW1 1095   2.151   0.513   0.549  1.3410 -0.7028 -2.0801
  365SOL    HW2 1096   2.268   0.497   0.662 -2.0514 -0.5434  1.6326
  366SOL     OW 1097   1.551   1.730   0.863  0.5426 -0.2196  0.2438
  366SOL    HW1 1098   1.494   1.716   0.782 -0.6225 -0.1871  1.0308
  366SOL    HW2 1099   1.540   1.823   0.896  2.1533  0.2350 -0.3782
  367SOL     OW 1100   1.776   0.391   1.892 -0.0303  0.1118  0.0164
  367SOL    HW1 1101   1.773   0.299   1.930 -1.9598  0.5181  0.9834
  367SOL    HW2 1102   1.804   0.387   1.796 -1.2307 -1.6379 -0.3084
  368SOL     OW 1103   0.466   0.066   1.783  0.0582  0.2115 -0.2035
  368SOL    HW1 1104   0.552   0.115   1.796 -0.2485  0.3305  1.7805
  368SOL    HW2 1105   0.480  -0.031   1.803 -0.2928  0.2655  0.3235
  369SOL     OW 1106   1.591   1.236   1.333 -0.5281 -0.2503 -0.5818
  369SOL    HW1 1107   1.547   1.297   1.267  0.0745 -0.2842 -1.0165
  369SOL    HW2 1108   1.608   1.286   1.418 -2.2597 -0.4895 -0.0528
  370SOL     OW 1109   1.203   1.746   1.936  0.5912 -0.1028  1.1329
  370SOL    HW1 1110   1.220   1.719   2.031  1.7869 -0.4749  0.8268
  370SOL    HW2 1111   1.209   1.846   1.929 -4.3575  0.5504  2.3696
  371SOL     OW 1112   1.283   0.698   0.341 -0.2184  0.4417  0.6305
  371SOL    HW1 1113   1.347   0.755   0.290 -1.7335  1.4379 -0.2525
  371SOL    HW2 1114   1.261   0.741   0.428  2.7269 -1.4849  2.4975
  372SOL     OW 1115   0.518   1.556   2.318  0.1344  0.0040 -0.0167
  372SOL    HW1 1116   0.599   1.517   2.275 -0.9064  0.0143 -2.0892
  372SOL    HW2 1117   0.533   1.653   2.337  0.4127  0.1435 -0.9144
  373SOL     OW 1118   1.271   0.634   1.176  0.0026 -0.1494  0.2284
  373SOL    HW1 1119   1.317   0.555   1.135 -0.6881 -0.4997  0.1126
  373SOL    HW2 1120   1.201   0.602   1.240  0.3506  0.3864  0.8855
  374SOL     OW 1121   0.631   1.636   0.777 -0.6392  0.3548  0.1637
  374SOL    HW1 1122   0.622   1.556   0.717  1.3936  0.0248  0.2135
  374SOL    HW2 1123   0.638   1.605   0.872 -0.3344  0.6040  0.2249
  375SOL     OW 1124   0.199   0.275   1.216 -0.1510 -0.9938  0.3632
  375SOL    HW1 1125   0.173   0.208   1.285 -0.5441 -1.6335 -0.4000
  375SOL    HW2 1126   0.299   0.277   1.207 -0.0621 -0.4743  1.3680
  376SOL     OW 1127   1.318   1.588   0.622 -0.0660  0.4239  0.1741
  376SOL    HW1 1128   1.253   1.606   0.696 -0.6585 -0.4432 -0.1253
  376SOL    HW2 1129   1.393   1.532   0.656 -0.2829  0.1167  0.1502
  377SOL     OW 1130   0.913   1.667   2.327 -0.3121 -0.6167 -0.0585
  377SOL    HW1 1131   0.826   1.684   2.281  0.1646  0.4808 -0.5941
  377SOL    HW2 1132   0.914   1.574   2.363 -1.1659 -1.1216 -1.2599
  378SOL     OW 1133   1.642   1.015   1.513 -0.1964 -0.0408  0.8055
  378SOL    HW1 1134   1.712   0.955   1.475  0.1975 -0.2190  1.7861
  378SOL    HW2 1135   1.597   1.065   1.439  2.3419  1.6074  0.2567
  379SOL     OW 1136   0.154   1.191   0.138 -0.3905  0.0234 -0.2594
  379SOL    HW1 1137   0.085   1.124   0.165 -2.1741  2.4885  1.9315
  379SOL    HW2 1138   0.116   1.283   0.150  2.1159  1.4831 -2.5051
  380SOL     OW 1139   2.047   0.704   2.243  0.5362 -0.5761 -0.2286
  380SOL    HW1 1140   2.033   0.801   2.228 -0.1973 -0.4060  1.3494
  380SOL    HW2 1141   2.001   0.652   2.171  1.1176  0.2264 -1.2041
  381SOL     OW 1142   0.190   0.445   0.428  0.1752 -0.1208  0.3474
  381SOL    HW1 1143   0.142   0.374   0.480  0.6582 -0.5050  0.2685
  381SOL    HW2 1144   0.242   0.503   0.491 -2.6814  2.1786  0.8405
  382SOL     OW 1145   0.880   0.156   2.276  0.1711 -0.3171  0.1912
  382SOL    HW1 1146   0.953   0.221   2.255  0.7665 -0.9263  0.3330
  382SOL    HW2 1147   0.883   0.134   2.373 -0.9872  0.5858  0.4470
  383SOL     OW 1148   0.795   1.883   0.792 -0.2729 -1.0090 -0.6142
  383SOL    HW1 1149   0.730   1.812   0.765  0.6800 -1.3644 -2.0720
  383SOL    HW2 1150   0.844   1.852   0.874 -1.3140 -1.1140 -0.0177
  384SOL     OW 1151   0.909   0.852   1.601 -1.0337 -0.1043  0.1264
  384SOL    HW1 1152   0.837   0.888   1.660 -1.9066 -0.2178 -0.8410
  384SOL    HW2 1153   0.960   0.928   1.561 -0.5806 -0.0245  0.8471
  385SOL     OW 1154   1.551   1.396   1.087  0.4714 -0.3812 -0.4327
  385SOL    HW1 1155   1.635   1.444   1.062 -0.6894  1.0420 -1.7569
  385SOL    HW2 1156   1.526   1.333   1.013  0.0459 -0.3520 -0.3147
  386SOL     OW 1157   0.070   1.515   0.513 -0.4196  0.5549  0.2956
  386SOL    HW1 1158   0.056   1.615   0.515 -0.9615  0.5309 -1.0494
  386SOL    HW2 1159   0.167   1.495   0.523  0.2194  1.4522 -2.8676
  387SOL     OW 1160   0.321   2.030   2.217  0.6626 -0.0964  0.3252
  387SOL    HW1 1161   0.224   2.051   2.215  0.8996  1.0014 -0.5783
  387SOL    HW2 1162   0.373   2.114   2.229  1.5610 -0.4582 -0.8539
  388SOL     OW 1163   1.428   2.261   1.610  0.2336  0.0487  0.5246
  388SOL    HW1 1164   1.423   2.313   1.525 -0.4986 -0.1154  0.4574
  388SOL    HW2 1165   1.512   2.207   1.612  1.4261  1.8228  0.9516
  389SOL     OW 1166   0.867   0.807   1.328  0.1437 -0.1400 -0.3469
  389SOL    HW1 1167   0.878   0.820   1.426  0.8632  0.6408 -0.5159
  389SOL    HW2 1168   0.816   0.884   1.289  0.1132 -0.2971 -0.6194
  390SOL     OW 1169   0.842   0.951   0.198  0.0532  0.2171 -0.4950
  390SOL    HW1 1170   0.765   0.966   0.260 -0.0666  1.1036 -0.8489
  390SOL    HW2 1171   0.920   1.006   0.227  0.3364 -0.1518 -0.5417
  391SOL     OW 1172   1.403   0.909   0.174  0.1567 -0.2902  0.0423
  391SOL    HW1 1173   1.491   0.889   0.130  1.5186  2.9033  0.9980
  391SOL    HW2 1174   1.346   0.962   0.111  0.2179  0.2950  0.4655
  392SOL     OW 1175   1.294   0.592   1.498  0.0518 -0.1915 -0.3497
  392SOL    HW1 1176   1.215   0.644   1.530 -0.3212 -0.4560 -0.8183
  392SOL    HW2 1177   1.354   0.652   1.445 -0.2989 -0.1889 -0.7590
  393SOL     OW 1178   1.831   0.152   1.995 -0.0790 -0.3082 -0.2255
  393SOL    HW1 1179   1.916   0.181   2.039  0.7283 -3.7974  0.8894
  393SOL    HW2 1180   1.771   0.110   2.063 -1.5544 -0.2750 -1.4512
  394SOL     OW 1181   2.238   0.459   1.341  0.4062 -0.4807 -0.1300
  394SOL    HW1 1182   2.249   0.360   1.333  0.9414 -0.6215  1.9937
  394SOL    HW2 1183   2.162   0.480   1.401  2.5984  0.2953  2.5689
  395SOL     OW 1184   0.599   0.801   0.647 -0.3601 -0.1688 -0.3801
  395SOL    HW1 1185   0.636   0.723   0.697  0.2557  0.0143 -0.5395
  395SOL    HW2 1186   0.670   0.871   0.637 -0.9070  0.4217 -0.2237
  396SOL     OW 1187   1.860   1.365   1.900  0.4477  0.7456  0.4755
  396SOL    HW1 1188   1.849   1.302   1.823  1.3893  1.0249  0.1046
  396SOL    HW2 1189   1.867   1.459   1.866  2.7670  0.7100  0.7316
  397SOL     OW 1190   1.592   0.517   2.042 -0.2077 -0.5327 -0.0585
  397SOL    HW1 1191   1.669   0.471   1.997 -0.3474 -1.6235  0.7676
  397SOL    HW2 1192   1.569   0.601   1.993 -1.3671 -2.4120 -2.9402
  398SOL     OW 1193   0.418   0.227   0.823 -0.5654 -0.4355 -0.3905
  398SOL    HW1 1194   0.476   0.205   0.902 -1.4328 -0.1300  0.3550
  398SOL    HW2 1195   0.442   0.319   0.789  0.2460 -0.8231 -0.9066
  399SOL     OW 1196   1.931   1.337   1.521  0.7974  0.3455  0.2464
  399SOL    HW1 1197   1.946   1.265   1.589  0.9268 -0.2066 -0.3529
  399SOL    HW2 1198   1.959   1.304   1.431 -1.0927  0.3737 -0.4041
  400SOL     OW 1199   0.181   1.679   1.191  1.0781  0.0794 -0.8319
  400SOL    HW1 1200   0.166   1.689   1.289  0.7301  0.0591 -0.8789
  400SOL    HW2 1201   0.277   1.656   1.173  1.0852 -0.1735 -0.4786
  401SOL     OW 1202   1.838   0.589   0.702 -0.1497 -0.0109 -0.3233
  401SOL    HW1 1203   1.895   0.610   0.623  0.1075 -0.5164 -0.2780
  401SOL    HW2 1204   1.846   0.662   0.770 -1.0566  0.8662 -1.1270
  402SOL     OW 1205   0.099   0.567   2.140  0.6092  0.1775 -0.2646
  402SOL    HW1 1206   0.193   0.595   2.161  0.7232 -0.2826 -0.1413
  402SOL    HW2 1207   0.063   0.624   2.067  1.0436  0.2600 -0.4197
  403SOL     OW 1208   0.110   2.098   0.136  0.1003  0.2405 -0.5108
  403SOL    HW1 1209   0.011   2.109   0.138  0.1308  0.3721  1.2656
  403SOL    HW2 1210   0.153   2.187   0.154  0.4940 -0.2889  1.2851
  404SOL     OW 1211   0.968   1.435   1.066 -0.0105 -0.2545 -0.1283
  404SOL    HW1 1212   1.051   1.403   1.111 -0.4562 -1.8786 -0.3993
  404SOL    HW2 1213   0.933   1.515   1.115  0.4027 -0.9941  1.4416
  405SOL     OW 1214   1.562   2.243   0.187  0.3827  0.2221 -0.0583
  405SOL    HW1 1215   1.590   2.187   0.109 -0.1663  1.3460 -1.1088
  405SOL    HW2 1216   1.468   2.220   0.213 -0.0360  0.9893 -0.8379
  406SOL     OW 1217   0.612   1.718   1.824  0.0695  0.3497 -0.7706
  406SOL    HW1 1218   0.707   1.748   1.820  0.2157  0.3773  1.5960
  406SOL    HW2 1219   0.552   1.798   1.815  0.3527  0.7228  0.4990
  407SOL     OW 1220   1.731   2.155   1.599 -0.6487  0.9040  0.4546
  407SOL    HW1 1221   1.755   2.060   1.579  2.1344  1.3389  1.3441
  407SOL    HW2 1222   1.704   2.201   1.514 -0.0410 -0.1580 -0.3428
  408SOL     OW 1223   0.299   2.162   0.948 -0.1414  0.1130 -0.4676
  408SOL    HW1 1224   0.238   2.223   0.898 -0.9412  0.8231  1.2650
  408SOL    HW2 1225   0.247   2.110   1.015  1.1177  0.9074  1.2234
  409SOL     OW 1226   1.122   0.084   0.571  0.1283 -0.1243 -0.0215
  409SOL    HW1 1227   1.117   0.184   0.564 -0.8787 -0.1246  0.6064
  409SOL    HW2 1228   1.190   0.050   0.506  1.2988  1.0577  0.5347
  410SOL     OW 1229   1.639   0.861   0.028  0.3872  0.0357  0.7260
  410SOL    HW1 1230   1.689   0.865  -0.059  1.7203 -1.6188  1.3434
  410SOL    HW2 1231   1.699   0.889   0.102 -0.3322  0.1909  1.2608
  411SOL     OW 1232   1.290   0.636   2.207  0.1116  0.2045  0.0884
  411SOL    HW1 1233   1.336   0.548   2.206  2.2020  1.2293 -0.7957
  411SOL    HW2 1234   1.358   0.709   2.199 -1.5732  1.9015  0.4606
  412SOL     OW 1235   0.358   1.005   0.996 -0.1502 -0.2179  0.4361
  412SOL    HW1 1236   0.273   1.043   0.960  0.4243 -0.8253 -1.7516
  412SOL    HW2 1237   0.435   1.045   0.946  0.6518 -1.8751  0.3041
  413SOL     OW 1238   1.635   0.869   0.791 -0.2599  0.0605  0.5122
  413SOL    HW1 1239   1.643   0.899   0.696 -0.2479  0.1801  0.5502
  413SOL    HW2 1240   1.672   0.940   0.852  2.4293 -1.1622  0.4777
  414SOL     OW 1241   1.839   2.156   2.142 -0.0519  0.2827 -0.0183
  414SOL    HW1 1242   1.750   2.186   2.109  0.5047  1.4159 -0.5073
  414SOL    HW2 1243   1.912   2.208   2.098  0.8285  0.0194  1.0627
  415SOL     OW 1244   1.753   0.068   2.242  0.2779 -0.4773 -0.0598
  415SOL    HW1 1245   1.812  -0.012   2.252  0.6850 -0.1759 -0.0297
  415SOL    HW2 1246   1.739   0.111   2.331  0.4151 -0.2612 -0.1436
  416SOL     OW 1247   0.146   2.125   1.583 -0.0197  0.3064 -0.4827
  416SOL    HW1 1248   0.237   2.166   1.581 -0.8344  2.2138 -0.3067
  416SOL    HW2 1249   0.123   2.098   1.677 -0.4966  1.9532 -0.0904
  417SOL     OW 1250   1.024   0.278   0.239 -0.1019  0.1345  0.1387
  417SOL    HW1 1251   1.102   0.330   0.206 -1.0161  0.9912 -0.7498
  417SOL    HW2 1252   0.967   0.336   0.297 -0.2498 -0.3948  0.5390
   2.33395   2.33395   2.33395
